Program Version,EnergyPlus, Version 23.2.0-7636e6b3e9, YMD=2026.07.22 13:32
1,5,Environment Title[],Latitude[deg],Longitude[deg],Time Zone[],Elevation[m]
2,8,Day of Simulation[],Month[],Day of Month[],DST Indicator[1=yes 0=no],Hour[],StartMinute[],EndMinute[],DayType
3,5,Cumulative Day of Simulation[],Month[],Day of Month[],DST Indicator[1=yes 0=no],DayType  ! When Daily Report Variables Requested
4,2,Cumulative Days of Simulation[],Month[]  ! When Monthly Report Variables Requested
5,1,Cumulative Days of Simulation[] ! When Run Period Report Variables Requested
6,1,Calendar Year of Simulation[] ! When Annual Report Variables Requested
7,1,Environment,Site Outdoor Air Drybulb Temperature [C] !TimeStep
8,1,Environment,Site Sky Temperature [C] !TimeStep
9,1,Environment,Site Diffuse Solar Radiation Rate per Area [W/m2] !TimeStep
10,1,Environment,Site Direct Solar Radiation Rate per Area [W/m2] !TimeStep
11,1,Environment,Site Ground Temperature [C] !TimeStep
12,1,ZONE ONE,Zone Total Internal Radiant Heating Rate [W] !TimeStep
13,1,ZONE ONE,Zone Total Internal Convective Heating Rate [W] !TimeStep
14,1,ZONE ONE,Zone Windows Total Transmitted Solar Radiation Rate [W] !TimeStep
15,1,ZN001:WALL001,Surface Outside Face Sunlit Fraction [] !TimeStep
16,1,ZN001:WALL001,Surface Outside Face Incident Solar Radiation Rate per Area [W/m2] !TimeStep
17,1,ZN001:WALL002,Surface Outside Face Incident Solar Radiation Rate per Area [W/m2] !TimeStep
18,1,ZN001:WALL003,Surface Outside Face Incident Solar Radiation Rate per Area [W/m2] !TimeStep
19,1,ZN001:WALL004,Surface Outside Face Incident Solar Radiation Rate per Area [W/m2] !TimeStep
20,1,ZN001:ROOF001,Surface Outside Face Incident Solar Radiation Rate per Area [W/m2] !TimeStep
21,1,ZN001:WALL001:WIN001,Surface Outside Face Sunlit Fraction [] !TimeStep
22,1,ZN001:WALL001:WIN001,Surface Outside Face Incident Solar Radiation Rate per Area [W/m2] !TimeStep
23,1,ZN001:WALL001:WIN001,Surface Window Transmitted Solar Radiation Rate [W] !TimeStep
24,1,ZN001:WALL001:WIN001,Surface Window Net Heat Transfer Rate [W] !TimeStep
25,1,ZN001:WALL001,Surface Inside Face Temperature [C] !TimeStep
26,1,ZN001:WALL001,Surface Outside Face Temperature [C] !TimeStep
27,1,ZN001:WALL001,Surface Outside Face Convection Heat Transfer Coefficient [W/m2-K] !TimeStep
28,1,ZN001:WALL001,Surface Outside Face Net Thermal Radiation Heat Gain Rate [W] !TimeStep
29,1,ZN001:WALL001,Surface Outside Face Thermal Radiation to Sky Heat Transfer Coefficient [W/m2-K] !TimeStep
30,1,ZN001:WALL001,Surface Outside Face Thermal Radiation to Ground Heat Transfer Coefficient [W/m2-K] !TimeStep
31,1,ZN001:WALL001,Surface Outside Face Thermal Radiation to Air Heat Transfer Rate [W] !TimeStep
32,1,ZN001:WALL001,Surface Outside Face Solar Radiation Heat Gain Rate [W] !TimeStep
33,1,ZN001:WALL002,Surface Inside Face Temperature [C] !TimeStep
34,1,ZN001:WALL002,Surface Outside Face Temperature [C] !TimeStep
35,1,ZN001:WALL002,Surface Outside Face Convection Heat Transfer Coefficient [W/m2-K] !TimeStep
36,1,ZN001:WALL002,Surface Outside Face Net Thermal Radiation Heat Gain Rate [W] !TimeStep
37,1,ZN001:WALL002,Surface Outside Face Thermal Radiation to Sky Heat Transfer Coefficient [W/m2-K] !TimeStep
38,1,ZN001:WALL002,Surface Outside Face Thermal Radiation to Ground Heat Transfer Coefficient [W/m2-K] !TimeStep
39,1,ZN001:WALL002,Surface Outside Face Thermal Radiation to Air Heat Transfer Rate [W] !TimeStep
40,1,ZN001:WALL002,Surface Outside Face Solar Radiation Heat Gain Rate [W] !TimeStep
41,1,ZN001:WALL003,Surface Inside Face Temperature [C] !TimeStep
42,1,ZN001:WALL003,Surface Outside Face Temperature [C] !TimeStep
43,1,ZN001:WALL003,Surface Outside Face Convection Heat Transfer Coefficient [W/m2-K] !TimeStep
44,1,ZN001:WALL003,Surface Outside Face Net Thermal Radiation Heat Gain Rate [W] !TimeStep
45,1,ZN001:WALL003,Surface Outside Face Thermal Radiation to Sky Heat Transfer Coefficient [W/m2-K] !TimeStep
46,1,ZN001:WALL003,Surface Outside Face Thermal Radiation to Ground Heat Transfer Coefficient [W/m2-K] !TimeStep
47,1,ZN001:WALL003,Surface Outside Face Thermal Radiation to Air Heat Transfer Rate [W] !TimeStep
48,1,ZN001:WALL003,Surface Outside Face Solar Radiation Heat Gain Rate [W] !TimeStep
49,1,ZN001:WALL004,Surface Inside Face Temperature [C] !TimeStep
50,1,ZN001:WALL004,Surface Outside Face Temperature [C] !TimeStep
51,1,ZN001:WALL004,Surface Outside Face Convection Heat Transfer Coefficient [W/m2-K] !TimeStep
52,1,ZN001:WALL004,Surface Outside Face Net Thermal Radiation Heat Gain Rate [W] !TimeStep
53,1,ZN001:WALL004,Surface Outside Face Thermal Radiation to Sky Heat Transfer Coefficient [W/m2-K] !TimeStep
54,1,ZN001:WALL004,Surface Outside Face Thermal Radiation to Ground Heat Transfer Coefficient [W/m2-K] !TimeStep
55,1,ZN001:WALL004,Surface Outside Face Thermal Radiation to Air Heat Transfer Rate [W] !TimeStep
56,1,ZN001:WALL004,Surface Outside Face Solar Radiation Heat Gain Rate [W] !TimeStep
57,1,ZN001:FLR001,Surface Inside Face Temperature [C] !TimeStep
58,1,ZN001:FLR001,Surface Outside Face Temperature [C] !TimeStep
59,1,ZN001:ROOF001,Surface Inside Face Temperature [C] !TimeStep
60,1,ZN001:ROOF001,Surface Outside Face Temperature [C] !TimeStep
61,1,ZN001:ROOF001,Surface Outside Face Convection Heat Transfer Coefficient [W/m2-K] !TimeStep
62,1,ZN001:ROOF001,Surface Outside Face Net Thermal Radiation Heat Gain Rate [W] !TimeStep
63,1,ZN001:ROOF001,Surface Outside Face Thermal Radiation to Sky Heat Transfer Coefficient [W/m2-K] !TimeStep
64,1,ZN001:ROOF001,Surface Outside Face Thermal Radiation to Ground Heat Transfer Coefficient [W/m2-K] !TimeStep
65,1,ZN001:ROOF001,Surface Outside Face Thermal Radiation to Air Heat Transfer Rate [W] !TimeStep
66,1,ZN001:ROOF001,Surface Outside Face Solar Radiation Heat Gain Rate [W] !TimeStep
67,1,ZN001:WALL001:WIN001,Surface Inside Face Temperature [C] !TimeStep
68,1,ZN001:WALL001:WIN001,Surface Outside Face Temperature [C] !TimeStep
69,1,ZN001:WALL001:WIN001,Surface Outside Face Convection Heat Transfer Coefficient [W/m2-K] !TimeStep
70,1,ZN001:WALL001:WIN001,Surface Outside Face Net Thermal Radiation Heat Gain Rate [W] !TimeStep
71,1,ZN001:WALL001:WIN001,Surface Outside Face Thermal Radiation to Sky Heat Transfer Coefficient [W/m2-K] !TimeStep
72,1,ZN001:WALL001:WIN001,Surface Outside Face Thermal Radiation to Ground Heat Transfer Coefficient [W/m2-K] !TimeStep
73,1,ZN001:WALL001:WIN001,Surface Outside Face Thermal Radiation to Air Heat Transfer Rate [W] !TimeStep
74,1,ZONE ONE,Zone Mean Air Temperature [C] !TimeStep
75,1,ZONE ONE,Zone Air Heat Balance Internal Convective Heat Gain Rate [W] !TimeStep
76,1,ZONE ONE,Zone Air Heat Balance Surface Convection Rate [W] !TimeStep
77,1,ZONE ONE,Zone Air Heat Balance Outdoor Air Transfer Rate [W] !TimeStep
78,1,ZONE ONE,Zone Air Heat Balance Air Energy Storage Rate [W] !TimeStep
End of Data Dictionary
1,RUN PERIOD 1,  55.95,  -3.37,   0.00,  41.10
2,1, 4, 1, 0, 1, 0.00,15.00,Saturday
7,3.8249999999999997
8,-1.4987413327883132
9,0.0
10,0.0
11,19.12
12,0.0
13,0.0
14,0.0
15,0.0
16,0.0
17,0.0
18,0.0
19,0.0
20,0.0
21,0.0
22,0.0
23,0.0
24,-90.98860948516477
25,6.554358733116361
26,2.91443299319092
27,2.6931407843412494
28,-236.01708510242503
29,1.4841396079028573
30,2.160451955603022
31,-33.72620954660236
32,0.0
33,6.547672960337172
34,2.9168447628788012
35,2.7038294348359306
36,-279.98086686064727
37,1.4835411122729518
38,2.1595946086121405
39,-39.79996855316426
40,0.0
41,6.540346419157505
42,2.814905818442493
43,1.967190116543017
44,-249.61672971663532
45,1.4835715593568406
46,2.1596382242205445
47,-44.29361950673628
48,0.0
49,6.539709491518782
50,2.8101974189779084
51,1.9468609265888293
52,-248.31273492168214
53,1.4841543774087296
54,2.160473112938696
55,-44.51834062244055
56,0.0
57,7.215367671409673
58,7.24144409082112
59,6.667225865889294
60,0.4665723506478229
61,2.110102563613177
62,-1895.956767986207
63,4.153618626188372
64,0.0
65,0.0
66,0.0
67,5.374411195033417
68,4.005375120945018
69,1.8903863876329519
70,-79.6455758425493
71,1.393368864776678
72,2.028183886591102
73,-1.0481370250718565
74,6.871467777434995
75,0.0
76,-58.52578392988622
77,0.0
78,-53.06900909890267
2,1, 4, 1, 0, 1,15.00,30.00,Saturday
7,3.8499999999999996
8,-2.884055518863761
9,0.0
10,0.0
11,19.12
12,0.0
13,0.0
14,0.0
15,0.0
16,0.0
17,0.0
18,0.0
19,0.0
20,0.0
21,0.0
22,0.0
23,0.0
24,-96.2004069233591
25,6.497515485033312
26,2.703822586804473
27,2.965930372526029
28,-295.8238893254801
29,1.4711012571718498
30,2.1580374770931234
31,-42.45465083187706
32,0.0
33,6.489865366816778
34,2.7032738446001026
35,2.9656400538909997
36,-350.01196659386994
37,1.4711208761434265
38,2.1580656777149243
39,-50.27888647677704
40,0.0
41,6.481701525229142
42,2.5829228294963675
43,2.23654094042756
44,-314.09820502763705
45,1.4702918366218498
46,2.1568740001958386
47,-55.54867230834324
48,0.0
49,6.4817646374327325
50,2.583289281317001
51,2.2375706972122686
52,-314.1986390886439
53,1.470253554539789
54,2.1568189726425486
55,-55.53112523690622
56,0.0
57,7.188206467235574
58,7.215367671409673
59,6.605866149944584
60,-0.21650062088261712
61,2.4005566505052585
62,-2543.241909097879
63,4.104916918226421
64,0.0
65,0.0
66,0.0
67,5.244031829957635
68,3.79421336186698
69,1.9263942184849094
70,-88.80490956736224
71,1.381332659155974
72,2.0261615002248416
73,0.32384246371029335
74,6.829441273134797
75,0.0
76,-68.22426409391633
77,0.0
78,-62.58497800929275
2,1, 4, 1, 0, 1,30.00,45.00,Saturday
7,3.875
8,-4.291005668255764
9,0.0
10,0.0
11,19.12
12,0.0
13,0.0
14,0.0
15,0.0
16,0.0
17,0.0
18,0.0
19,0.0
20,0.0
21,0.0
22,0.0
23,0.0
24,-101.9236927716991
25,6.4285408346723205
26,2.35821648436628
27,2.4645369938886006
28,-322.04405055437945
29,1.4581492929613649
30,2.155868938769857
31,-56.18692363422043
32,0.0
33,6.431015141637715
34,2.5046641055743346
35,3.218116955257792
36,-424.5269158849251
37,1.4581448489249405
38,2.1558625285475332
39,-60.06568105313343
40,0.0
41,6.431803459343274
42,2.5091073120673193
43,3.2304519189035483
44,-425.55238321639337
45,1.4571704635519027
46,2.1544570383825024
47,-59.83116227489761
48,0.0
49,6.4215386123646185
50,2.3649574502269983
51,2.4863504982270728
52,-382.9400929490478
53,1.4571734295480359
54,2.1544613166624758
55,-66.1692986270706
56,0.0
57,7.159706241890432
58,7.188206467235574
59,6.54335911000335
60,-0.8505893127949214
61,2.6817333411139064
62,-3242.4780442366105
63,4.05785109594806
64,0.0
65,0.0
66,0.0
67,5.103933539222567
68,3.564990240984116
69,1.4830221208717769
70,-97.26919540306922
71,1.369203239185837
72,2.0241200771074412
73,1.7976232559156664
74,6.782388057804741
75,0.0
76,-73.13802301083285
77,0.0
78,-70.08138461243334
2,1, 4, 1, 0, 1,45.00,60.00,Saturday
7,3.9
8,-5.720397049500946
9,0.0
10,0.0
11,19.12
12,0.0
13,0.0
14,0.0
15,0.0
16,0.0
17,0.0
18,0.0
19,0.0
20,0.0
21,0.0
22,0.0
23,0.0
24,-106.80705148717014
25,6.369378353326
26,2.1619161559844584
27,2.727919243312138
28,-385.51350741131336
29,1.4440227132698453
30,2.1521276823741657
31,-64.30058132396691
32,0.0
33,6.371406216385445
34,2.3165932012528865
35,3.4553787719951954
36,-502.30518524037177
37,1.4452030494034673
38,2.1538362923674965
39,-69.37486448548694
40,0.0
41,6.371341115098693
42,2.3163300082470153
43,3.4549907571955396
44,-502.24028320737574
45,1.4452388739215407
46,2.1538881503094682
47,-69.38810388287641
48,0.0
49,6.360894354457331
50,2.160966061900877
51,2.7269091460344677
52,-456.0745294265222
53,1.4440770254068116
54,2.1522063029605785
55,-76.15785404586032
56,0.0
57,7.129856921122102
58,7.159706241890432
59,6.480577059737383
60,-1.439573419953513
61,2.9579281916528624
62,-3988.710446041877
63,4.011762747995111
64,0.0
65,0.0
66,0.0
67,4.976666475298998
68,3.360068112210797
69,1.7732534648562734
70,-106.71415670592057
71,1.3568560444630495
72,2.0218829976735964
73,3.1278013502262403
74,6.7324404922442955
75,0.0
76,-75.48790830400048
77,0.0
78,-74.4044187435459
2,1, 4, 1, 0, 2, 0.00,15.00,Saturday
7,3.8249999999999997
8,-6.240634339670748
9,0.0
10,0.0
11,19.12
12,0.0
13,0.0
14,0.0
15,0.0
16,0.0
17,0.0
18,0.0
19,0.0
20,0.0
21,0.0
22,0.0
23,0.0
24,-109.1244140189205
25,6.319197795787209
26,2.0235384098963
27,2.795923485194382
28,-405.26057193353535
29,1.4383399994585802
30,2.1489619389575654
31,-66.55411535067428
32,0.0
33,6.321271268068892
34,2.1815856062422916
35,3.5177388516831716
36,-526.6106872998537
37,1.4395839143841804
38,2.1507645610924357
39,-71.90982622959129
40,0.0
41,6.321276392864963
42,2.1816048679262123
43,3.5177611893174583
44,-526.6155627348344
45,1.439581796980918
46,2.150761492670233
47,-71.90887819009143
48,0.0
49,6.310618428821911
50,2.0231244773929986
51,2.796058917672435
52,-479.5874157243103
53,1.438332361704499
54,2.1489508706250184
55,-78.79862517018765
56,0.0
57,7.099577637014743
58,7.129856921122102
59,6.432375113501409
60,-1.6881528438377273
61,3.0344410534236275
62,-4215.723759761946
63,3.9870714847019055
64,0.0
65,0.0
66,0.0
67,4.890362989877303
68,3.2366382008202663
69,1.8607190126441706
70,-110.31574359080493
71,1.3514668851586926
72,2.018819113912084
73,3.404690301427186
74,6.683077164161659
75,0.0
76,-71.37183784673866
77,0.0
78,-73.5472630728318
2,1, 4, 1, 0, 2,15.00,30.00,Saturday
7,3.75
8,-6.763931550078951
9,0.0
10,0.0
11,19.12
12,0.0
13,0.0
14,0.0
15,0.0
16,0.0
17,0.0
18,0.0
19,0.0
20,0.0
21,0.0
22,0.0
23,0.0
24,-111.62619818130209
25,6.2674850937131
26,1.883359498142051
27,2.855030282195541
28,-424.7309936652994
29,1.433113949996219
30,2.1464736273028957
31,-68.88910679707139
32,0.0
33,6.269655426783519
34,2.045681275717699
35,3.5747817768324843
36,-550.8514888444131
37,1.4343824987034872
38,2.148313975673402
39,-74.49810827085079
40,0.0
41,6.26965502464494
42,2.0456797964852464
43,3.574780197830104
44,-550.8511152364418
45,1.434382653365302
46,2.1483142000478104
47,-74.49818090528504
48,0.0
49,6.258702139297177
50,1.8828893040825334
51,2.855086962901087
52,-502.6199372851017
53,1.4331106289040885
54,2.14646880919537
55,-81.56524790635673
56,0.0
57,7.068384108695016
58,7.099577637014743
59,6.3821864764707135
60,-1.9454679837956996
61,3.1027324358261765
62,-4442.91754716834
63,3.969992991225323
64,0.0
65,0.0
66,0.0
67,4.805167475414521
68,3.1115708793814747
69,1.9107189240360416
70,-113.85787482285083
71,1.3466842742660308
72,2.0166489050875196
73,3.6904113790170148
74,6.635852001626677
75,0.0
76,-67.99715651601917
77,0.0
78,-70.37362469319676
2,1, 4, 1, 0, 2,30.00,45.00,Saturday
7,3.6750000000000003
8,-7.290331007743134
9,0.0
10,0.0
11,19.12
12,0.0
13,0.0
14,0.0
15,0.0
16,0.0
17,0.0
18,0.0
19,0.0
20,0.0
21,0.0
22,0.0
23,0.0
24,-114.11278546565185
25,6.216476594707995
26,1.7442843200995917
27,2.9141355375982663
28,-444.5137463338545
29,1.4278633910466725
30,2.1439663475632997
31,-71.17707797509993
32,0.0
33,6.206211738275731
34,1.7347996671331636
35,2.892575376870795
36,-523.8883921937712
37,1.4291636977398252
38,2.145854867022253
39,-84.7427043906142
40,0.0
41,6.218713083121345
42,1.9105643351346948
43,3.6312592611769485
44,-575.3681328786737
45,1.429163685885448
46,2.145854849805514
47,-77.0455098331536
48,0.0
49,6.219762411796121
50,1.9164994633757455
51,3.6442628929606915
52,-576.5697461230669
53,1.4278596259825251
54,2.1439608792812264
55,-76.71782270302639
56,0.0
57,7.036427067335111
58,7.068384108695016
59,6.332655362152629
60,-2.199450285901285
61,3.171074388988285
62,-4673.65956433377
63,3.9527033232463227
64,0.0
65,0.0
66,0.0
67,4.720007182266897
68,2.9867983293094085
69,1.9600916817440053
70,-117.41670609311527
71,1.3418794573402293
72,2.0144624039109558
73,3.973811772541091
74,6.5903685803785
75,0.0
76,-66.67746183306097
77,0.0
78,-67.78931849888757
2,1, 4, 1, 0, 2,45.00,60.00,Saturday
7,3.6
8,-7.819875967085466
9,0.0
10,0.0
11,19.12
12,0.0
13,0.0
14,0.0
15,0.0
16,0.0
17,0.0
18,0.0
19,0.0
20,0.0
21,0.0
22,0.0
23,0.0
24,-116.60422981202412
25,6.16589614841924
26,1.6059927055584258
27,2.972861698280415
28,-464.53525275376217
29,1.4226114790471236
30,2.1414739073941194
31,-73.43108907308911
32,0.0
33,6.156845549782225
34,1.6061483724743328
35,2.9740621412645254
36,-549.8912248732881
37,1.4225356825307467
38,2.1413636989718303
39,-86.90995499253931
40,0.0
41,6.168186200064136
42,1.7760203628137305
43,3.6870620282154145
44,-600.101916968711
45,1.4239408790567119
46,2.1434068456896926
47,-79.56222716849449
48,0.0
49,6.168100586181608
50,1.7756744297578966
51,3.6866072053947283
52,-600.0212013214099
53,1.4239883502020796
54,2.1434758679001855
55,-79.5799217565076
56,0.0
57,7.0037812150438885
58,7.036427067335111
59,6.283515548647312
60,-2.4507343697564985
61,3.2392131430787705
62,-4907.6267341716575
63,3.935471141349884
64,0.0
65,0.0
66,0.0
67,4.635489309547779
68,2.8626150557189476
69,2.0082471667365995
70,-121.00373814099461
71,1.3370668676464337
72,2.0122807331608263
73,4.253207170015424
74,6.545730219381756
75,0.0
76,-66.34571984744792
77,0.0
78,-66.54060824485292
2,1, 4, 1, 0, 3, 0.00,15.00,Saturday
7,3.6
8,-7.997097567027481
9,0.0
10,0.0
11,19.12
12,0.0
13,0.0
14,0.0
15,0.0
16,0.0
17,0.0
18,0.0
19,0.0
20,0.0
21,0.0
22,0.0
23,0.0
24,-115.95612872755535
25,6.1392001056184995
26,1.6323560936264891
27,3.1928376801438976
28,-484.7107110287781
29,1.4201244984427772
30,2.1398675066515542
31,-72.40338671144012
32,0.0
33,6.129948932693144
34,1.6318124118774604
35,3.1928205282374282
36,-573.599595694134
37,1.4201257410989852
38,2.1398693142803418
39,-85.72854311873745
40,0.0
41,6.140812115013438
42,1.793626166523407
43,3.8975456024953434
44,-621.4086576887498
45,1.4214823611803713
46,2.14184270611444
47,-78.7346044954464
48,0.0
49,6.140818499675603
50,1.7936496456177327
51,3.8975686460352517
52,-621.4142817661233
53,1.4214795973604741
54,2.1418386857847818
55,-78.73343042077946
56,0.0
57,6.972056152903516
58,7.0037812150438885
59,6.256813731524174
60,-2.3259501066112787
61,3.503348919624079
62,-5171.243275911083
63,3.92603435219682
64,0.0
65,0.0
66,0.0
67,4.600299493171633
68,2.835572676444599
69,2.1706669780042853
70,-122.12434376716419
71,1.334841123253336
72,2.0109262143910156
73,4.408540039979501
74,6.504851523951216
75,0.0
76,-56.68594731481117
77,0.0
78,-60.945284618522244
2,1, 4, 1, 0, 3,15.00,30.00,Saturday
7,3.6
8,-8.174675232709944
9,0.0
10,0.0
11,19.12
12,0.0
13,0.0
14,0.0
15,0.0
16,0.0
17,0.0
18,0.0
19,0.0
20,0.0
21,0.0
22,0.0
23,0.0
24,-115.61314973233172
25,6.110214572237907
26,1.6507963234721879
27,3.3976498233906374
28,-503.3755293967371
29,1.4189511389835556
30,2.140173661883783
31,-71.73333676638214
32,0.0
33,6.10096287088042
34,1.6503110744629037
35,3.397702378087369
36,-595.7080545433164
37,1.4189468002112635
38,2.1401673477708845
39,-84.93252548972929
40,0.0
41,6.111363952716831
42,1.8048976549998377
43,4.092959847619368
44,-641.3901575981704
45,1.4202386440156007
46,2.1420473243375744
47,-78.24939422605244
48,0.0
49,6.111363485863097
50,1.8048960274293349
51,4.092958523939034
52,-641.3897687601535
53,1.4202388315361856
54,2.142047597227989
55,-78.24947534389449
56,0.0
57,6.940301938085595
58,6.972056152903516
59,6.228120180812537
60,-2.2186675374803206
61,3.764319602929586
62,-5429.453660926958
63,3.9249212431140945
64,0.0
65,0.0
66,0.0
67,4.572136089589833
68,2.8116769530067813
69,2.302303030089588
70,-123.36862964851133
71,1.3333429457938115
72,2.010631359475376
73,4.545760355922498
74,6.468991106364696
75,0.0
76,-49.09744058335026
77,0.0
78,-53.47061694790968
2,1, 4, 1, 0, 3,30.00,45.00,Saturday
7,3.6
8,-8.352610637864302
9,0.0
10,0.0
11,19.12
12,0.0
13,0.0
14,0.0
15,0.0
16,0.0
17,0.0
18,0.0
19,0.0
20,0.0
21,0.0
22,0.0
23,0.0
24,-115.2813436073444
25,6.083525648173295
26,1.6700525112168778
27,3.6076836449513534
28,-522.22019534862
29,1.4177128480997616
30,2.1403878295289562
31,-71.0299279198136
32,0.0
33,6.074254537315459
34,1.6695735154606621
35,3.6077243564503862
36,-618.016698099392
37,1.4177089769704387
38,2.140382193528072
39,-84.09965038538775
40,0.0
41,6.084083025510379
42,1.8155131384977454
43,4.285460883181913
44,-661.1580600749542
45,1.418942677221945
46,2.1421783330116937
47,-77.79009673320834
48,0.0
49,6.08408305893887
50,1.8155132506872134
51,4.285460959728782
52,-661.1580866501914
53,1.4189426642279455
54,2.1421783140938673
55,-77.7900911415828
56,0.0
57,6.90876469789165
58,6.940301938085595
59,6.201483927366559
60,-2.115496596349509
61,4.028634634522141
62,-5683.52709829857
63,3.923415613684694
64,0.0
65,0.0
66,0.0
67,4.544761843035303
68,2.788665914998205
69,2.4335976533189823
70,-124.64783583458673
71,1.3318670646398019
72,2.0103708459475698
73,4.6778667116384085
74,6.437116566580429
75,0.0
76,-45.0689861904232
77,0.0
78,-47.53290549505026
2,1, 4, 1, 0, 3,45.00,60.00,Saturday
7,3.6
8,-8.530905468618926
9,0.0
10,0.0
11,19.12
12,0.0
13,0.0
14,0.0
15,0.0
16,0.0
17,0.0
18,0.0
19,0.0
20,0.0
21,0.0
22,0.0
23,0.0
24,-114.98510614982274
25,6.058346782122495
26,1.6891524789420826
27,3.8212434914322464
28,-541.0297547272382
29,1.416479376400876
30,2.1406114942270964
31,-70.33245427821342
32,0.0
33,6.04906196912514
34,1.6886835490794865
35,3.821277933184006
36,-640.2847186658732
37,1.4164755564575708
38,2.14060593033727
39,-83.27361020825451
40,0.0
41,6.0582543926945
42,1.825083647661338
43,4.47478587193611
44,-680.6190246679378
45,1.417639827523523
46,2.142301723460587
47,-77.37615386432347
48,0.0
49,6.058254390340499
50,1.8250836400283619
51,4.47478586762616
52,-680.6190228785648
53,1.4176398284188645
54,2.142301724764674
55,-77.37615424513928
56,0.0
57,6.877527364788343
58,6.90876469789165
59,6.176214462142915
60,-2.0172327531707124
61,4.295326651905039
62,-5933.115900851121
63,3.921813750160025
64,0.0
65,0.0
66,0.0
67,4.519148551796889
68,2.767012693617346
69,2.565043170058176
70,-125.98047721371671
71,1.3303965058717309
72,2.010120005739647
73,4.802147664508523
74,6.407702919500881
75,0.0
76,-42.78634710265459
77,0.0
78,-43.867823241012765
2,1, 4, 1, 0, 4, 0.00,15.00,Saturday
7,3.625
8,-8.233947202588524
9,0.0
10,0.0
11,19.12
12,0.0
13,0.0
14,0.0
15,0.0
16,0.0
17,0.0
18,0.0
19,0.0
20,0.0
21,0.0
22,0.0
23,0.0
24,-112.55151896786312
25,6.042107440329634
26,1.7674941209024342
27,3.875860187745764
28,-532.8692942981021
29,1.4189427692508836
30,2.1411251442181403
31,-68.3802523532209
32,0.0
33,6.032970795871818
34,1.7670208608739573
35,3.8758925906389425
36,-630.62378740847
37,1.4189390265187765
38,2.1411196964177095
39,-80.96297073973145
40,0.0
41,6.0417965511191305
42,1.8975188929109006
43,4.522292214934186
44,-669.219010037587
45,1.4200280591732677
46,2.142704847844683
47,-75.31645010967897
48,0.0
49,6.041796551280583
50,1.8975188934360265
51,4.52229221521457
52,-669.2190101616746
53,1.420028059112306
54,2.1427048477559376
55,-75.31645008359668
56,0.0
57,6.847100495859701
58,6.877527364788343
59,6.158428850954815
60,-1.829371414299903
61,4.362120254928747
62,-5846.612857744255
63,3.93046591201374
64,0.0
65,0.0
66,0.0
67,4.528990960550402
68,2.8132237976586794
69,2.6074778420593723
70,-123.51721061469007
71,1.3323972708939906
72,2.0101570349408173
73,4.681674961871464
74,6.380897406950291
75,0.0
76,-37.96011319268705
77,0.0
78,-39.98205589669594
2,1, 4, 1, 0, 4,15.00,30.00,Saturday
7,3.6500000000000004
8,-7.937984219818816
9,0.0
10,0.0
11,19.12
12,0.0
13,0.0
14,0.0
15,0.0
16,0.0
17,0.0
18,0.0
19,0.0
20,0.0
21,0.0
22,0.0
23,0.0
24,-110.28723867707184
25,6.026412895609317
26,1.8433648219670566
27,3.926677478960963
28,-524.298925872209
29,1.4218753264421657
30,2.14232732264758
31,-66.5397264196669
32,0.0
33,6.017426199336533
34,1.8428992985329067
35,3.9267086431797624
36,-620.4810692109176
37,1.421871544962608
38,2.142321822124631
39,-78.78399594344916
40,0.0
41,6.025907177593772
42,1.9680311245872144
43,4.567377230305995
44,-657.5177549701016
45,1.4229145943136703
46,2.143839028503002
47,-73.36508958582291
48,0.0
49,6.025907177582791
50,1.9680311245516442
51,4.567377230288262
52,-657.5177549616782
53,1.4229145943178687
54,2.1438390285091105
55,-73.36508958758819
56,0.0
57,6.817243917559977
58,6.847100495859701
59,6.14130409256658
60,-1.6459675491131927
61,4.428861349277356
62,-5759.3986116911
63,3.941098948386163
64,0.0
65,0.0
66,0.0
67,4.541120218818833
68,2.8602517728196517
69,2.6340805404644643
70,-121.0867247413583
71,1.33490236312587
72,2.0109338878323864
73,4.556415507224093
74,6.356744858311279
75,0.0
76,-34.024349984677336
77,0.0
78,-36.02829016981196
2,1, 4, 1, 0, 4,30.00,45.00,Saturday
7,3.6750000000000003
8,-7.643008771424832
9,0.0
10,0.0
11,19.12
12,0.0
13,0.0
14,0.0
15,0.0
16,0.0
17,0.0
18,0.0
19,0.0
20,0.0
21,0.0
22,0.0
23,0.0
24,-108.06224127589816
25,6.012021581031091
26,1.9188721127027406
27,3.978114624682049
28,-515.6457948513822
29,1.424784930372663
30,2.1435012602830263
31,-64.7096693645658
32,0.0
33,6.003184089229043
34,1.9184166917897116
35,3.9781437331974376
36,-610.2411252543674
37,1.424781206644125
38,2.143495847366303
39,-76.61731422446822
40,0.0
41,6.011318176946865
42,2.0382199817508786
43,4.612557319552932
44,-645.7292369570708
45,1.425782444825777
46,2.14495126779886
47,-71.42504714431242
48,0.0
49,6.011318176947587
50,2.0382199817532567
51,4.6125573195540275
52,-645.7292369576385
53,1.4257824448254937
54,2.1449512677984326
55,-71.4250471441941
56,0.0
57,6.7880020533645755
58,6.817243917559977
59,6.1254320844391685
60,-1.4648514112400444
61,4.4959667702271044
62,-5670.289783495893
63,3.951630734410988
64,0.0
65,0.0
66,0.0
67,4.554018082895254
68,2.9075590111538077
69,2.6606084613044048
70,-118.66796903314585
71,1.3374101021571885
72,2.0117198556112683
73,4.429452086294914
74,6.334741889783575
75,0.0
76,-31.468960906239204
77,0.0
78,-32.82451420426465
2,1, 4, 1, 0, 4,45.00,60.00,Saturday
7,3.7
8,-7.349013202905894
9,0.0
10,0.0
11,19.12
12,0.0
13,0.0
14,0.0
15,0.0
16,0.0
17,0.0
18,0.0
19,0.0
20,0.0
21,0.0
22,0.0
23,0.0
24,-105.8762708169452
25,5.9986832691642205
26,1.993878140925276
27,4.030016935645156
28,-506.8820440611752
29,1.4276884182200063
30,2.14467143622945
31,-62.895992028695396
32,0.0
33,5.989995545636868
34,1.9934325595505955
35,4.030043857620383
36,-599.8701763359247
37,1.4276847713361496
38,2.1446661385264463
39,-74.47003308453614
40,0.0
41,5.997785796832049
42,2.1079870217145924
43,4.657774840144004
44,-633.8305397493153
45,1.4286444041815176
46,2.1460601574320695
47,-69.50131904925553
48,0.0
49,5.99778579683201
50,2.107987021714441
51,4.657774840143939
52,-633.8305397492771
53,1.428644404181535
54,2.146060157432107
55,-69.50131904926339
56,0.0
57,6.759400899263081
58,6.7880020533645755
59,6.110589224498786
60,-1.2860672215485471
61,4.5634166315090114
62,-5579.3045842657
63,3.9621091738065584
64,0.0
65,0.0
66,0.0
67,4.567780301119797
68,2.955184866985121
69,2.687179357700937
70,-116.2625060564897
71,1.3399164928778005
72,2.0125090811314643
73,4.300555869034791
74,6.3142762570440825
75,0.0
76,-29.688967448761716
77,0.0
78,-30.533470014022186
2,1, 4, 1, 0, 5, 0.00,15.00,Saturday
7,3.7
8,-9.008128500723217
9,0.0
10,0.0
11,19.12
12,0.0
13,0.0
14,0.0
15,0.0
16,0.0
17,0.0
18,0.0
19,0.0
20,0.0
21,0.0
22,0.0
23,0.0
24,-112.24251080186845
25,5.93661788742667
26,1.741604740292479
27,4.080998485143851
28,-576.0007896953595
29,1.41535424123543
30,2.1455441061789267
31,-72.2533435057794
32,0.0
33,5.927601202417279
34,1.741202512090012
35,4.081023085148344
36,-681.6996510615548
37,1.41535068623512
38,2.145538921055028
39,-85.54452534510102
40,0.0
41,5.936475070652023
42,1.8712062015503137
43,4.702430164406831
44,-720.1211069485524
45,1.4162648978127115
46,2.1468723315956155
47,-79.90178899242069
48,0.0
49,5.936475070652029
50,1.8712062015503108
51,4.7024301644068345
52,-720.1211069485545
53,1.4162648978127115
54,2.1468723315955995
55,-79.90178899242022
56,0.0
57,6.7280219569114
58,6.759400899263081
59,6.046214842964571
60,-1.9741507829367353
61,4.631225869519861
62,-6420.10488193261
63,3.9298068084725246
64,0.0
65,0.0
66,0.0
67,4.446809759466589
68,2.7394212323815736
69,2.7079929790141515
70,-128.1584630825063
71,1.328172593065996
72,2.0130286983151473
73,5.539889764648772
74,6.287376152377426
75,0.0
76,-48.89795217411272
77,0.0
78,-40.137370366310755
2,1, 4, 1, 0, 5,15.00,30.00,Saturday
7,3.7
8,-10.699109868214805
9,0.0
10,0.0
11,19.12
12,0.0
13,0.0
14,0.0
15,0.0
16,0.0
17,0.0
18,0.0
19,0.0
20,0.0
21,0.0
22,0.0
23,0.0
24,-117.7967771901742
25,5.878186043801002
26,1.501756498451362
27,4.150182359683042
28,-647.3970366061903
29,1.4002768029159833
30,2.1426102471693413
31,-81.01455513609287
32,0.0
33,5.868767981554716
34,1.5013431794924237
35,4.150204855874895
36,-766.209482205847
37,1.400273610997444
38,2.1426055722408393
39,-95.91573141389948
40,0.0
41,5.878335896580832
42,1.6426022411626873
43,4.754698233256232
44,-807.8646406066714
45,1.4013055976046724
46,2.1441170237744465
47,-89.80229952536598
48,0.0
49,5.878335896580831
50,1.6426022411626875
51,4.754698233256232
52,-807.8646406066714
53,1.4013055976046724
54,2.1441170237744465
55,-89.80229952536597
56,0.0
57,6.6957573034602795
58,6.7280219569114
59,5.98525404137874
60,-2.6386352793249785
61,4.698561633284718
62,-7259.922361963502
63,3.877943070208513
64,0.0
65,0.0
66,0.0
67,4.314408157331968
68,2.520465971307715
69,2.7870580227855433
70,-139.94951177926828
71,1.3143336448859826
72,2.0106755850484874
73,6.794587129380566
74,6.249809545637054
75,0.0
76,-66.11562210959639
77,0.0
78,-56.060563339762304
2,1, 4, 1, 0, 5,30.00,45.00,Saturday
7,3.7
8,-12.423423039347256
9,0.0
10,0.0
11,19.12
12,0.0
13,0.0
14,0.0
15,0.0
16,0.0
17,0.0
18,0.0
19,0.0
20,0.0
21,0.0
22,0.0
23,0.0
24,-123.18733458575552
25,5.814972140208668
26,1.2641708169776726
27,4.218222363514325
28,-719.5458201472358
29,1.3851719347248515
30,2.1398242060390458
31,-89.67423281824195
32,0.0
33,5.805180349812509
34,1.2637400868475024
35,4.218245416758896
36,-851.6080647703939
37,1.3851686724714658
38,2.1398194077777646
39,-106.1670002876099
40,0.0
41,5.815421835934398
42,1.4155205879184598
43,4.806942730233404
44,-896.253313579678
45,1.3862839946245769
46,2.141459857257634
47,-99.61514016775338
48,0.0
49,5.8154218359344005
50,1.4155205879184598
51,4.806942730233404
52,-896.253313579678
53,1.3862839946245769
54,2.141459857257634
55,-99.61514016775338
56,0.0
57,6.6621682409752285