Program Version,EnergyPlus, Version 23.2.0-7636e6b3e9, YMD=2026.07.22 10:24
1,5,Environment Title[],Latitude[deg],Longitude[deg],Time Zone[],Elevation[m]
2,8,Day of Simulation[],Month[],Day of Month[],DST Indicator[1=yes 0=no],Hour[],StartMinute[],EndMinute[],DayType
3,5,Cumulative Day of Simulation[],Month[],Day of Month[],DST Indicator[1=yes 0=no],DayType  ! When Daily Report Variables Requested
4,2,Cumulative Days of Simulation[],Month[]  ! When Monthly Report Variables Requested
5,1,Cumulative Days of Simulation[] ! When Run Period Report Variables Requested
6,1,Calendar Year of Simulation[] ! When Annual Report Variables Requested
7,1,Environment,Site Outdoor Air Drybulb Temperature [C] !TimeStep
8,1,Environment,Site Sky Temperature [C] !TimeStep
9,1,Environment,Site Diffuse Solar Radiation Rate per Area [W/m2] !TimeStep
10,1,Environment,Site Direct Solar Radiation Rate per Area [W/m2] !TimeStep
11,1,Environment,Site Ground Temperature [C] !TimeStep
12,1,ZONE ONE,Zone Total Internal Radiant Heating Rate [W] !TimeStep
13,1,ZONE ONE,Zone Total Internal Convective Heating Rate [W] !TimeStep
14,1,ZONE ONE,Zone Windows Total Transmitted Solar Radiation Rate [W] !TimeStep
15,1,ZN001:WALL001,Surface Outside Face Sunlit Fraction [] !TimeStep
16,1,ZN001:WALL001,Surface Outside Face Incident Solar Radiation Rate per Area [W/m2] !TimeStep
17,1,ZN001:WALL002,Surface Outside Face Incident Solar Radiation Rate per Area [W/m2] !TimeStep
18,1,ZN001:WALL003,Surface Outside Face Incident Solar Radiation Rate per Area [W/m2] !TimeStep
19,1,ZN001:WALL004,Surface Outside Face Incident Solar Radiation Rate per Area [W/m2] !TimeStep
20,1,ZN001:ROOF001,Surface Outside Face Incident Solar Radiation Rate per Area [W/m2] !TimeStep
21,1,ZN001:WALL001:WIN001,Surface Outside Face Sunlit Fraction [] !TimeStep
22,1,ZN001:WALL001:WIN001,Surface Outside Face Incident Solar Radiation Rate per Area [W/m2] !TimeStep
23,1,ZN001:WALL001:WIN001,Surface Window Transmitted Solar Radiation Rate [W] !TimeStep
24,1,ZN001:WALL001:WIN001,Surface Window Net Heat Transfer Rate [W] !TimeStep
25,1,ZN001:WALL001,Surface Inside Face Temperature [C] !TimeStep
26,1,ZN001:WALL001,Surface Outside Face Temperature [C] !TimeStep
27,1,ZN001:WALL001,Surface Outside Face Outdoor Air Drybulb Temperature [C] !TimeStep
28,1,ZN001:WALL001,Surface Outside Face Convection Heat Transfer Coefficient [W/m2-K] !TimeStep
29,1,ZN001:WALL001,Surface Outside Face Net Thermal Radiation Heat Gain Rate [W] !TimeStep
30,1,ZN001:WALL001,Surface Outside Face Thermal Radiation to Sky Heat Transfer Coefficient [W/m2-K] !TimeStep
31,1,ZN001:WALL001,Surface Outside Face Thermal Radiation to Ground Heat Transfer Coefficient [W/m2-K] !TimeStep
32,1,ZN001:WALL001,Surface Outside Face Thermal Radiation to Air Heat Transfer Rate [W] !TimeStep
33,1,ZN001:WALL001,Surface Outside Face Solar Radiation Heat Gain Rate [W] !TimeStep
34,1,ZN001:WALL002,Surface Inside Face Temperature [C] !TimeStep
35,1,ZN001:WALL002,Surface Outside Face Temperature [C] !TimeStep
36,1,ZN001:WALL002,Surface Outside Face Outdoor Air Drybulb Temperature [C] !TimeStep
37,1,ZN001:WALL002,Surface Outside Face Convection Heat Transfer Coefficient [W/m2-K] !TimeStep
38,1,ZN001:WALL002,Surface Outside Face Net Thermal Radiation Heat Gain Rate [W] !TimeStep
39,1,ZN001:WALL002,Surface Outside Face Thermal Radiation to Sky Heat Transfer Coefficient [W/m2-K] !TimeStep
40,1,ZN001:WALL002,Surface Outside Face Thermal Radiation to Ground Heat Transfer Coefficient [W/m2-K] !TimeStep
41,1,ZN001:WALL002,Surface Outside Face Thermal Radiation to Air Heat Transfer Rate [W] !TimeStep
42,1,ZN001:WALL002,Surface Outside Face Solar Radiation Heat Gain Rate [W] !TimeStep
43,1,ZN001:WALL003,Surface Inside Face Temperature [C] !TimeStep
44,1,ZN001:WALL003,Surface Outside Face Temperature [C] !TimeStep
45,1,ZN001:WALL003,Surface Outside Face Outdoor Air Drybulb Temperature [C] !TimeStep
46,1,ZN001:WALL003,Surface Outside Face Convection Heat Transfer Coefficient [W/m2-K] !TimeStep
47,1,ZN001:WALL003,Surface Outside Face Net Thermal Radiation Heat Gain Rate [W] !TimeStep
48,1,ZN001:WALL003,Surface Outside Face Thermal Radiation to Sky Heat Transfer Coefficient [W/m2-K] !TimeStep
49,1,ZN001:WALL003,Surface Outside Face Thermal Radiation to Ground Heat Transfer Coefficient [W/m2-K] !TimeStep
50,1,ZN001:WALL003,Surface Outside Face Thermal Radiation to Air Heat Transfer Rate [W] !TimeStep
51,1,ZN001:WALL003,Surface Outside Face Solar Radiation Heat Gain Rate [W] !TimeStep
52,1,ZN001:WALL004,Surface Inside Face Temperature [C] !TimeStep
53,1,ZN001:WALL004,Surface Outside Face Temperature [C] !TimeStep
54,1,ZN001:WALL004,Surface Outside Face Outdoor Air Drybulb Temperature [C] !TimeStep
55,1,ZN001:WALL004,Surface Outside Face Convection Heat Transfer Coefficient [W/m2-K] !TimeStep
56,1,ZN001:WALL004,Surface Outside Face Net Thermal Radiation Heat Gain Rate [W] !TimeStep
57,1,ZN001:WALL004,Surface Outside Face Thermal Radiation to Sky Heat Transfer Coefficient [W/m2-K] !TimeStep
58,1,ZN001:WALL004,Surface Outside Face Thermal Radiation to Ground Heat Transfer Coefficient [W/m2-K] !TimeStep
59,1,ZN001:WALL004,Surface Outside Face Thermal Radiation to Air Heat Transfer Rate [W] !TimeStep
60,1,ZN001:WALL004,Surface Outside Face Solar Radiation Heat Gain Rate [W] !TimeStep
61,1,ZN001:FLR001,Surface Inside Face Temperature [C] !TimeStep
62,1,ZN001:FLR001,Surface Outside Face Temperature [C] !TimeStep
63,1,ZN001:ROOF001,Surface Inside Face Temperature [C] !TimeStep
64,1,ZN001:ROOF001,Surface Outside Face Temperature [C] !TimeStep
65,1,ZN001:ROOF001,Surface Outside Face Outdoor Air Drybulb Temperature [C] !TimeStep
66,1,ZN001:ROOF001,Surface Outside Face Convection Heat Transfer Coefficient [W/m2-K] !TimeStep
67,1,ZN001:ROOF001,Surface Outside Face Net Thermal Radiation Heat Gain Rate [W] !TimeStep
68,1,ZN001:ROOF001,Surface Outside Face Thermal Radiation to Sky Heat Transfer Coefficient [W/m2-K] !TimeStep
69,1,ZN001:ROOF001,Surface Outside Face Thermal Radiation to Ground Heat Transfer Coefficient [W/m2-K] !TimeStep
70,1,ZN001:ROOF001,Surface Outside Face Thermal Radiation to Air Heat Transfer Rate [W] !TimeStep
71,1,ZN001:ROOF001,Surface Outside Face Solar Radiation Heat Gain Rate [W] !TimeStep
72,1,ZN001:WALL001:WIN001,Surface Inside Face Temperature [C] !TimeStep
73,1,ZN001:WALL001:WIN001,Surface Outside Face Temperature [C] !TimeStep
74,1,ZN001:WALL001:WIN001,Surface Outside Face Outdoor Air Drybulb Temperature [C] !TimeStep
75,1,ZN001:WALL001:WIN001,Surface Outside Face Convection Heat Transfer Coefficient [W/m2-K] !TimeStep
76,1,ZN001:WALL001:WIN001,Surface Outside Face Net Thermal Radiation Heat Gain Rate [W] !TimeStep
77,1,ZN001:WALL001:WIN001,Surface Outside Face Thermal Radiation to Sky Heat Transfer Coefficient [W/m2-K] !TimeStep
78,1,ZN001:WALL001:WIN001,Surface Outside Face Thermal Radiation to Ground Heat Transfer Coefficient [W/m2-K] !TimeStep
79,1,ZN001:WALL001:WIN001,Surface Outside Face Thermal Radiation to Air Heat Transfer Rate [W] !TimeStep
80,1,ZONE ONE,Zone Mean Air Temperature [C] !TimeStep
81,1,ZONE ONE,Zone Air Heat Balance Internal Convective Heat Gain Rate [W] !TimeStep
82,1,ZONE ONE,Zone Air Heat Balance Surface Convection Rate [W] !TimeStep
83,1,ZONE ONE,Zone Air Heat Balance Interzone Air Transfer Rate [W] !TimeStep
84,1,ZONE ONE,Zone Air Heat Balance Outdoor Air Transfer Rate [W] !TimeStep
85,1,ZONE ONE,Zone Air Heat Balance System Air Transfer Rate [W] !TimeStep
86,1,ZONE ONE,Zone Air Heat Balance Air Energy Storage Rate [W] !TimeStep
End of Data Dictionary
1,RUN PERIOD 1,  55.95,  -3.37,   0.00,  41.10
2,1, 4, 1, 0, 1, 0.00,15.00,Saturday
7,3.8249999999999997
8,-1.4987413327883132
9,0.0
10,0.0
11,19.12
12,0.0
13,0.0
14,0.0
15,0.0
16,0.0
17,0.0
18,0.0
19,0.0
20,0.0
21,0.0
22,0.0
23,0.0
24,-90.988609485181
25,6.554358733118833
26,2.9144329931910633
27,3.819891003043213
28,2.6931407843412245
29,-236.01708510246453
30,1.484139607902862
31,2.160451955602991
32,-33.726209546596536
33,0.0
34,6.547672960339663
35,2.9168447628789202
36,3.819891003043213
37,2.7038294348359053
38,-279.9808668606865
39,1.4835411122729567
40,2.159594608612112
41,-39.7999685531585
42,0.0
43,6.540346419159998
44,2.8149058184426345
45,3.819891003043213
46,1.967190116542969
47,-249.61672971668554
48,1.483571559356849
49,2.1596382242204837
50,-44.29361950672879
51,0.0
52,6.539709491521274
53,2.81019741897807
54,3.819891003043213
55,1.94686092658878
56,-248.31273492173457
57,1.4841543774087345
58,2.160473112938665
59,-44.51834062243278
60,0.0
61,7.215367671412537
62,7.241444090823996
63,6.667225865891922
64,0.4665723506478967
65,3.805032019075771
66,2.1101025636131716
67,-1895.9567679862726
68,4.15361862618836
69,0.0
70,0.0
71,0.0
72,5.374411195036032
73,4.0053751209467805
74,3.8249999999999997
75,1.8903863876328577
76,-79.64557584261914
77,1.3933688647766747
78,2.0281838865910617
79,-1.0481370250820832
80,6.871467777437646
81,0.0
82,-58.52578392988973
83,0.0
84,0.0
85,0.0
86,-53.06900909892596
2,1, 4, 1, 0, 1,15.00,30.00,Saturday
7,3.8499999999999996
8,-2.884055518863761
9,0.0
10,0.0
11,19.12
12,0.0
13,0.0
14,0.0
15,0.0
16,0.0
17,0.0
18,0.0
19,0.0
20,0.0
21,0.0
22,0.0
23,0.0
24,-96.20040692353562
25,6.497515485035766
26,2.703822586804606
27,3.844891003043213
28,2.9659303725260147
29,-295.8238893255199
30,1.4711012571718565
31,2.1580374770930733
32,-42.45465083187114
33,0.0
34,6.489865366819199
35,2.7032738446002567
36,3.844891003043213
37,2.9656400538909864
38,-350.0119665939118
39,1.4711208761434242
40,2.158065677714953
41,-50.27888647677092
42,0.0
43,6.481701525231543
44,2.582922829496523
45,3.844891003043213
46,2.2365409404275227
47,-314.09820502767957
48,1.4702918366218483
49,2.1568740001958653
50,-55.548672308337075
51,0.0
52,6.481764637435153
53,2.5832892813171533
54,3.844891003043213
55,2.237570697212231
56,-314.19863908869326
57,1.4702535545397935
58,2.156818972642528
59,-55.53112523689897
60,0.0
61,7.18820646723842
62,7.215367671412537
63,6.605866149947134
64,-0.21650062088255
65,3.830032019075771
66,2.400556650505256
67,-2543.2419090979447
68,4.104916918226424
69,0.0
70,0.0
71,0.0
72,5.244031829956839
73,3.7942133618653315
74,3.8499999999999996
75,1.9263942184858824
76,-88.8049095672964
77,1.3813326591559867
78,2.0261615002248097
79,0.3238424637199338
80,6.829441273137427
81,0.0
82,-68.22426409396296
83,0.0
84,0.0
85,0.0
86,-62.58497800932257
2,1, 4, 1, 0, 1,30.00,45.00,Saturday
7,3.875
8,-4.291005668255764
9,0.0
10,0.0
11,19.12
12,0.0
13,0.0
14,0.0
15,0.0
16,0.0
17,0.0
18,0.0
19,0.0
20,0.0
21,0.0
22,0.0
23,0.0
24,-101.92369277168875
25,6.4285408346747905
26,2.3582164843664337
27,3.869891003043213
28,2.46453699388857
29,-322.0440505544147
30,1.4581492929613638
31,2.15586893876988
32,-56.18692363421533
33,0.0
34,6.43101514164016
35,2.5046641055744856
36,3.869891003043213
37,3.218116955257781
38,-424.52691588496623
39,1.458144848924939
40,2.155862528547556
41,-60.06568105312741
42,0.0
43,6.4318034593457005
44,2.5091073120674716
45,3.869891003043213
46,3.2304519189035306
47,-425.55238321643185
48,1.4571704635518992
49,2.1544570383825423
50,-59.831162274892
51,0.0
52,6.421538612367091
53,2.3649574502271298
54,3.869891003043213
55,2.4863504982270417
56,-382.9400929490948
57,1.4571734295480423
58,2.1544613166624393
59,-66.16929862706372
60,0.0
61,7.15970624189327
62,7.18820646723842
63,6.543359110005939
64,-0.850589312794854
65,3.855032019075771
66,2.681733341113903
67,-3242.47804423667
68,4.057851095948054
69,0.0
70,0.0
71,0.0
72,5.1039335392255225
73,3.5649902409876404
74,3.875
75,1.483022120873247
76,-97.26919540320846
77,1.3692032391858224
78,2.0241200771077423
79,1.7976232558952783
80,6.7823880578073625
81,0.0
82,-73.13802301083182
83,0.0
84,0.0
85,0.0
86,-70.0813846124459
2,1, 4, 1, 0, 1,45.00,60.00,Saturday
7,3.9
8,-5.720397049500946
9,0.0
10,0.0
11,19.12
12,0.0
13,0.0
14,0.0
15,0.0
16,0.0
17,0.0
18,0.0
19,0.0
20,0.0
21,0.0
22,0.0
23,0.0
24,-106.80705148737634
25,6.369378353328434
26,2.161916155984598
27,3.894891003043213
28,2.7279192433121127
29,-385.5135074113516
30,1.444022713269849
31,2.1521276823741515
32,-64.3005813239613
33,0.0
34,6.371406216387862
35,2.3165932012530304
36,3.894891003043213
37,3.455378771995181
38,-502.30518524041145
39,1.4452030494034669
40,2.1538362923675156
41,-69.37486448548124
42,0.0
43,6.371341115101113
44,2.3163300082471605
45,3.894891003043213
46,3.4549907571955245
47,-502.24028320741576
48,1.4452388739215403
49,2.1538881503094873
50,-69.38810388287065
51,0.0
52,6.360894354459734
53,2.160966061901026
54,3.894891003043213
55,2.7269091460344512
56,-456.0745294265627
57,1.4440770254068105
58,2.1522063029605953
59,-76.15785404585438
60,0.0
61,7.129856921124915
62,7.15970624189327
63,6.480577059739918
64,-1.4395734199534658
65,3.880032019075771
66,2.957928191652861
67,-3988.710446041943
68,4.011762747995134
69,0.0
70,0.0
71,0.0
72,4.976666475298202
73,3.3600681122081255
74,3.9
75,1.7732534648546372
76,-106.7141567058147
77,1.3568560444630757
78,2.0218829976736488
79,3.1278013502417434
80,6.732440492246892
81,0.0
82,-75.4879083040631
83,0.0
84,0.0
85,0.0
86,-74.40441874358356
2,1, 4, 1, 0, 2, 0.00,15.00,Saturday
7,3.8249999999999997
8,-6.240634339670748
9,0.0
10,0.0
11,19.12
12,0.0
13,0.0
14,0.0
15,0.0
16,0.0
17,0.0
18,0.0
19,0.0
20,0.0
21,0.0
22,0.0
23,0.0
24,-109.12441401891267
25,6.31919779578971
26,2.0235384098964433
27,3.819891003043213
28,2.7959234851943577
29,-405.2605719335685
30,1.4383399994585797
31,2.148961938957581
32,-66.55411535066945
33,0.0
34,6.321271268071344
35,2.181585606242405
36,3.819891003043213
37,3.5177388516831574
38,-526.6106872998911
39,1.439583914384184
40,2.1507645610924206
41,-71.90982622958582
42,0.0
43,6.321276392867404
44,2.181604867926341
45,3.819891003043213
46,3.517761189317444
47,-526.6155627348693
48,1.4395817969809175
49,2.1507614926702505
50,-71.90887819008636
51,0.0
52,6.310618428824346
53,2.0231244773931345
54,3.819891003043213
55,2.7960589176724104
56,-479.5874157243546
57,1.4383323617045025
58,2.1489508706250047
59,-78.79862517018117
60,0.0
61,7.099577637017547
62,7.129856921124915
63,6.43237511350394
64,-1.688152843837666
65,3.805032019075771
66,3.0344410534236275
67,-4215.723759762002
68,3.9870714847019055
69,0.0
70,0.0
71,0.0
72,4.890362989880032
73,3.2366382008209484
74,3.8249999999999997
75,1.8607190126452302
76,-110.31574359083208
77,1.3514668851586709
78,2.0188191139121083
79,3.4046903014232126
80,6.683077164164245
81,0.0
82,-71.37183784672125
83,0.0
84,0.0
85,0.0
86,-73.547263072847
2,1, 4, 1, 0, 2,15.00,30.00,Saturday
7,3.75
8,-6.763931550078951
9,0.0
10,0.0
11,19.12
12,0.0
13,0.0
14,0.0
15,0.0
16,0.0
17,0.0
18,0.0
19,0.0
20,0.0
21,0.0
22,0.0
23,0.0
24,-111.62619818127529
25,6.267485093715542
26,1.883359498142179
27,3.744891003043213
28,2.855030282195517
29,-424.730993665329
30,1.4331139499962189
31,2.1464736273029104
32,-68.88910679706713
33,0.0
34,6.269655426785944
35,2.045681275717817
36,3.744891003043213
37,3.574781776832475
38,-550.8514888444449
39,1.4343824987034866
40,2.1483139756734184
41,-74.49810827084616
42,0.0
43,6.269655024647382
44,2.045679796485379
45,3.744891003043213
46,3.574780197830095
47,-550.8511152364778
48,1.434382653365301
49,2.1483142000478264
50,-74.4981809052798
51,0.0
52,6.258702139299649
53,1.8828893040826837
54,3.744891003043213
55,2.8550869629010713
56,-502.6199372851428
57,1.4331106289040878
58,2.1464688091953845
59,-81.56524790635069
60,0.0
61,7.068384108697805
62,7.099577637017547
63,6.38218647647328
64,-1.945467983795639
65,3.730032019075771
66,3.1027324358261748
67,-4442.917547168399
68,3.9699929912253267
69,0.0
70,0.0
71,0.0
72,4.805167475418045
73,3.11157087938318
74,3.75
75,1.9107189240357867
76,-113.857874822918
77,1.3466842742660368
78,2.016648905087501
79,3.690411379007179
80,6.635852001629263
81,0.0
82,-67.99715651600599
83,0.0
84,0.0
85,0.0
86,-70.3736246931961
2,1, 4, 1, 0, 2,30.00,45.00,Saturday
7,3.6750000000000003
8,-7.290331007743134
9,0.0
10,0.0
11,19.12
12,0.0
13,0.0
14,0.0
15,0.0
16,0.0
17,0.0
18,0.0
19,0.0
20,0.0
21,0.0
22,0.0
23,0.0
24,-114.11278546565369
25,6.216476594710423
26,1.7442843200997358
27,3.6698910030432135
28,2.914135537598251
29,-444.5137463338876
30,1.4278633910466716
31,2.1439663475633135
32,-71.17707797509506
33,0.0
34,6.206211738278178
35,1.7347996671333112
36,3.6698910030432135
37,2.89257537687078
38,-523.8883921938112
39,1.4291636977398243
40,2.1458548670222686
41,-84.74270439060832
42,0.0
43,6.218713083123802
44,1.9105643351348232
45,3.6698910030432135
46,3.6312592611769396
47,-575.368132878712
48,1.429163685885449
49,2.1458548498055143
50,-77.04550983314799
51,0.0
52,6.219762411798539
53,1.9164994633758556
54,3.6698910030432135
55,3.644262892960678
56,-576.5697461231035
57,1.4278596259825287
58,2.143960879281213
59,-76.7178227030211
60,0.0
61,7.036427067337886
62,7.068384108697805
63,6.332655362155165
64,-2.199450285901216
65,3.6550320190757715
66,3.171074388988284
67,-4673.659564333827
68,3.9527033232463173
69,0.0
70,0.0
71,0.0
72,4.720007182269455
73,2.986798329310716
74,3.6750000000000003
75,1.9600916817434029
76,-117.41670609316598
77,1.3418794573402424
78,2.014462403910967
79,3.9738117725336655
80,6.5903685803810905
81,0.0
82,-66.67746183305289
83,0.0
84,0.0
85,0.0
86,-67.78931849887898
2,1, 4, 1, 0, 2,45.00,60.00,Saturday
7,3.6
8,-7.819875967085466
9,0.0
10,0.0
11,19.12
12,0.0
13,0.0
14,0.0
15,0.0
16,0.0
17,0.0
18,0.0
19,0.0
20,0.0
21,0.0
22,0.0
23,0.0
24,-116.60422981211715
25,6.165896148421635
26,1.6059927055585577
27,3.5948910030432133
28,2.9728616982804006
29,-464.53525275380116
30,1.422611479047128
31,2.141473907394093
32,-73.43108907308334
33,0.0
34,6.156845549784651
35,1.6061483724744605
36,3.5948910030432133
37,2.9740621412645103
38,-549.891224873326
39,1.4225356825307478
40,2.1413636989718308
41,-86.90995499253373
42,0.0
43,6.168186200066543
44,1.776020362813854
45,3.5948910030432133
46,3.687062028215406
47,-600.1019169687441
48,1.4239408790567112
49,2.1434068456897073
50,-79.56222716848964
51,0.0
52,6.168100586184024
53,1.7756744297580325
54,3.5948910030432133
55,3.686607205394723
56,-600.0212013214464
57,1.4239883502020785
58,2.1434758679002
59,-79.57992175650217
60,0.0
61,7.003781215046644
62,7.036427067337886
63,6.283515548649814
64,-2.450734369756436
65,3.5800320190757713
66,3.2392131430787687
67,-4907.626734171719
68,3.935471141349887
69,0.0
70,0.0
71,0.0
72,4.635489309548348
73,2.8626150557190613
74,3.6
75,2.0082471667361617
76,-121.00373814099859
77,1.3370668676464412
78,2.0122807331608947
79,4.253207170014837
80,6.545730219384341
81,0.0
82,-66.34571984747595
83,0.0
84,0.0
85,0.0
86,-66.54060824486159
2,1, 4, 1, 0, 3, 0.00,15.00,Saturday
7,3.6
8,-7.997097567027481
9,0.0
10,0.0
11,19.12
12,0.0
13,0.0
14,0.0
15,0.0
16,0.0
17,0.0
18,0.0
19,0.0
20,0.0
21,0.0
22,0.0
23,0.0
24,-115.95612872777343
25,6.139200105620903
26,1.6323560936266082
27,3.5948910030432133
28,3.192837680143885
29,-484.71071102881376
30,1.4201244984427819
31,2.1398675066515302
32,-72.40338671143489
33,0.0
34,6.129948932695557
35,1.63181241187758
36,3.5948910030432133
37,3.1928205282374096
38,-573.5995956941732
39,1.4201257410989885
40,2.13986931428033
41,-85.72854311873174
42,0.0
43,6.140812115015793
44,1.7936261665235185
45,3.5948910030432133
46,3.8975456024953328
47,-621.408657688787
48,1.4214823611803746
49,2.1418427061144265
50,-78.73460449544105
51,0.0
52,6.140818499677994
53,1.793649645617846
54,3.5948910030432133
55,3.8975686460352397
56,-621.414281766154
57,1.421479597360474
58,2.141838685784795
59,-78.73343042077501
60,0.0
61,6.972056152906256
62,7.003781215046644
63,6.2568137315266075
64,-2.3259501066112174
65,3.5800320190757713
66,3.503348919624078
67,-5171.2432759111325
68,3.9260343521968153
69,0.0
70,0.0
71,0.0
72,4.600299493170212
73,2.835572676443519
74,3.6
75,2.1706669780042525
76,-122.12434376712193
77,1.3348411232533355
78,2.0109262143910485
79,4.408540039985689
80,6.504851523953769
81,0.0
82,-56.68594731488733
83,0.0
84,0.0
85,0.0
86,-60.94528461856934
2,1, 4, 1, 0, 3,15.00,30.00,Saturday
7,3.6
8,-8.174675232709944
9,0.0
10,0.0
11,19.12
12,0.0
13,0.0
14,0.0
15,0.0
16,0.0
17,0.0
18,0.0
19,0.0
20,0.0
21,0.0
22,0.0
23,0.0
24,-115.61314973230292
25,6.110214572240346
26,1.6507963234723022
27,3.5948910030432133
28,3.3976498233906263
29,-503.37552939676885
30,1.4189511389835585
31,2.1401736618837712
32,-71.73333676637752
33,0.0
34,6.100962870882832
35,1.6503110744630036
36,3.5948910030432133
37,3.3977023780873528
38,-595.7080545433498
39,1.4189468002112668
40,2.140167347770872
41,-84.93252548972445
42,0.0
43,6.111363952719254
44,1.80489765499995
45,3.5948910030432133
46,4.092959847619362
47,-641.3901575982037
48,1.4202386440156016
49,2.142047324337575
50,-78.24939422604753
51,0.0
52,6.111363485865522
53,1.804896027429447
54,3.5948910030432133
55,4.092958523939028
56,-641.3897687601834
57,1.420238831536185
58,2.1420475972280024
59,-78.24947534389008
60,0.0
61,6.94030193808832
62,6.972056152906256
63,6.228120180815062
64,-2.218667537480267
65,3.5800320190757713
66,3.7643196029295853
67,-5429.453660927013
68,3.9249212431140985
69,0.0
70,0.0
71,0.0
72,4.572136089592959
73,2.811676953008373
74,3.6
75,2.3023030300898815
76,-123.36862964857359
77,1.3333429457938037
78,2.0106313594753575
79,4.545760355913378
80,6.468991106367238
81,0.0
82,-49.09744058333001
83,0.0
84,0.0
85,0.0
86,-53.47061694792507
2,1, 4, 1, 0, 3,30.00,45.00,Saturday
7,3.6
8,-8.352610637864302
9,0.0
10,0.0
11,19.12
12,0.0
13,0.0
14,0.0
15,0.0
16,0.0
17,0.0
18,0.0
19,0.0
20,0.0
21,0.0
22,0.0
23,0.0
24,-115.28134360756955
25,6.0835256481756526
26,1.6700525112169802
27,3.5948910030432133
28,3.6076836449513445
29,-522.2201953486518
30,1.4177128480997663
31,2.140387829528931
32,-71.029927919809
33,0.0
34,6.074254537317763
35,1.6695735154607962
36,3.5948910030432133
37,3.607724356450376
38,-618.0166980994284
39,1.4177089769704383
40,2.140382193528085
41,-84.0996503853824
42,0.0
43,6.084083025512686
44,1.81551313849784
45,3.5948910030432133
46,4.2854608831819085
47,-661.1580600749891
48,1.4189426772219491
49,2.1421783330116666
50,-77.79009673320324
51,0.0
52,6.0840830589411805
53,1.8155132506873264
54,3.5948910030432133
55,4.285460959728778
56,-661.1580866502215
57,1.4189426642279448
58,2.142178314093881
59,-77.79009114157836
60,0.0
61,6.9087646978943615
62,6.94030193808832
63,6.20148392736896
64,-2.115496596349454
65,3.5800320190757713
66,4.02863463452214
67,-5683.527098298626
68,3.9234156136846976
69,0.0
70,0.0
71,0.0
72,4.544761843033882
73,2.7886659149949082
74,3.6
75,2.4335976533185777
76,-124.64783583445686
77,1.3318670646398132
78,2.010370845947596
79,4.677866711657429
80,6.437116566582943
81,0.0
82,-45.06898619049823
83,0.0
84,0.0
85,0.0
86,-47.532905495092216
2,1, 4, 1, 0, 3,45.00,60.00,Saturday
7,3.6
8,-8.530905468618926
9,0.0
10,0.0
11,19.12
12,0.0
13,0.0
14,0.0
15,0.0
16,0.0
17,0.0
18,0.0
19,0.0
20,0.0
21,0.0
22,0.0
23,0.0
24,-114.98510615011799
25,6.0583467821248504
26,1.6891524789421946
27,3.5948910030432133
28,3.821243491432238
29,-541.0297547272638
30,1.4164793764008756
31,2.1406114942271093
32,-70.3324542782097
33,0.0
34,6.049061969127449
35,1.688683549079612
36,3.5948910030432133
37,3.821277933183998
38,-640.2847186659071
39,1.4164755564575704
40,2.140605930337283
41,-83.27361020824951
42,0.0
43,6.0582543926967976
44,1.8250836476614405
45,3.5948910030432133
46,4.474785871936106
47,-680.6190246679719
48,1.4176398275235256
49,2.1423017234605735
50,-77.3761538643185
51,0.0
52,6.058254390342776
53,1.8250836400284591
54,3.5948910030432133
55,4.474785867626156
56,-680.6190228786007
57,1.417639828418869
58,2.1423017247646468
59,-77.37615424513402
60,0.0
61,6.877527364791034
62,6.9087646978943615
63,6.176214462145289
64,-2.017232753170655
65,3.5800320190757713
66,4.295326651905038
67,-5933.115900851169
68,3.921813750160021
69,0.0
70,0.0
71,0.0
72,4.519148551794331
73,2.7670126936146744
74,3.6
75,2.565043170058964
76,-125.9804772136113
77,1.3303965058717042
78,2.010120005739652
79,4.802147664523961
80,6.407702919503346
81,0.0
82,-42.786347102744706
83,0.0
84,0.0
85,0.0
86,-43.86782324108523
2,1, 4, 1, 0, 4, 0.00,15.00,Saturday
7,3.625
8,-8.233947202588524
9,0.0
10,0.0
11,19.12
12,0.0
13,0.0
14,0.0
15,0.0
16,0.0
17,0.0
18,0.0
19,0.0
20,0.0
21,0.0
22,0.0
23,0.0
24,-112.5515189679204
25,6.042107440331957
26,1.767494120902552
27,3.619891003043213
28,3.875860187745757
29,-532.8692942981289
30,1.418942769250883
31,2.141125144218153
32,-68.38025235321696
33,0.0
34,6.032970795874137
35,1.7670208608740774
36,3.619891003043213
37,3.8758925906389337
38,-630.6237874085023
39,1.4189390265187758
40,2.1411196964177224
41,-80.96297073972669
42,0.0
43,6.041796551121457
44,1.8975188929109998
45,3.619891003043213
46,4.522292214934184
47,-669.2190100376164
48,1.4200280591732681
49,2.142704847844683
50,-75.31645010967463
51,0.0
52,6.041796551282919
53,1.89751889343614
54,3.619891003043213
55,4.522292215214567
56,-669.219010161705
57,1.4200280591123053
58,2.1427048477559514
59,-75.3164500835922
60,0.0
61,6.847100495862381
62,6.877527364791034
63,6.158428850957233
64,-1.8293714142998574
65,3.605032019075771
66,4.362120254928747
67,-5846.612857744301
68,3.9304659120137435
69,0.0
70,0.0
71,0.0
72,4.528990960552392
73,2.8132237976608963
74,3.625
75,2.6074778420599887
76,-123.51721061477681
77,1.3323972708939682
78,2.0101570349408306
79,4.6816749618587625
80,6.38089740695273
81,0.0
82,-37.960113192684375
83,0.0
84,0.0
85,0.0
86,-39.982055896734
2,1, 4, 1, 0, 4,15.00,30.00,Saturday
7,3.6500000000000004
8,-7.937984219818816
9,0.0
10,0.0
11,19.12
12,0.0
13,0.0
14,0.0
15,0.0
16,0.0
17,0.0
18,0.0
19,0.0
20,0.0
21,0.0
22,0.0
23,0.0
24,-110.28723867683357
25,6.026412895611646
26,1.8433648219671817
27,3.6448910030432136
28,3.926677478960956
29,-524.2989258722373
30,1.4218753264421649
31,2.1423273226475934
32,-66.5397264196627
33,0.0
34,6.017426199338919
35,1.8428992985330233
36,3.6448910030432136
37,3.9267086431797553
38,-620.4810692109492
39,1.4218715449626074
40,2.142321822124644
41,-78.78399594344454
42,0.0
43,6.025907177596162
44,1.9680311245873294
45,3.6448910030432136
46,4.567377230305992
47,-657.5177549701326
48,1.4229145943136696
49,2.143839028503016
50,-73.36508958581835
51,0.0
52,6.025907177585182
53,1.968031124551753
54,3.6448910030432136
55,4.567377230288257
56,-657.5177549617109
57,1.4229145943178698
58,2.143839028509111
59,-73.36508958758344
60,0.0
61,6.817243917562656
62,6.847100495862381
63,6.14130409256907
64,-1.645967549113143
65,3.6300320190757716
66,4.428861349277356
67,-5759.398611691145
68,3.941098948386163
69,0.0
70,0.0
71,0.0
72,4.541120218826222
73,2.860251772824256
74,3.6500000000000004
75,2.6340805404639536
76,-121.08672474153931
77,1.334902363125886
78,2.010933887832422
79,4.556415507197583
80,6.356744858313746
81,0.0
82,-34.02434998457833
83,0.0
84,0.0
85,0.0
86,-36.02829016976925
2,1, 4, 1, 0, 4,30.00,45.00,Saturday
7,3.6750000000000003
8,-7.643008771424832
9,0.0
10,0.0
11,19.12
12,0.0
13,0.0
14,0.0
15,0.0
16,0.0
17,0.0
18,0.0
19,0.0
20,0.0
21,0.0
22,0.0
23,0.0
24,-108.06224127590816
25,6.012021581033392
26,1.9188721127028596
27,3.6698910030432135
28,3.978114624682042
29,-515.6457948514148
30,1.4247849303726656
31,2.143501260283013
32,-64.709669364561
33,0.0
34,6.00318408923136
35,1.9184166917898355
36,3.6698910030432135
37,3.978143733197431
38,-610.2411252544008
39,1.424781206644124
40,2.143495847366317
41,-76.61731422446326
42,0.0
43,6.011318176949161
44,2.038219981750987
45,3.6698910030432135
46,4.612557319552929
47,-645.7292369571064
48,1.4257824448257796
49,2.144951267798846
50,-71.42504714430721
51,0.0
52,6.011318176949893
53,2.0382199817533766
54,3.6698910030432135
55,4.612557319554024
56,-645.729236957671
57,1.425782444825493
58,2.1449512677984472
59,-71.42504714418934
60,0.0
61,6.788002053367229
62,6.817243917562656
63,6.1254320844416545
64,-1.4648514112399862
65,3.6550320190757715
66,4.4959667702271044
67,-5670.28978349595
68,3.951630734410991
69,0.0
70,0.0
71,0.0
72,4.554018082897528
73,2.9075590111538077
74,3.6750000000000003
75,2.660608461303345
76,-118.66796903314585
77,1.3374101021572244
78,2.0117198556112923
79,4.429452086294914
80,6.334741889786071
81,0.0
82,-31.46896090622875
83,0.0
84,0.0
85,0.0
86,-32.82451420422196
2,1, 4, 1, 0, 4,45.00,60.00,Saturday
7,3.7
8,-7.349013202905894
9,0.0
10,0.0
11,19.12
12,0.0
13,0.0
14,0.0
15,0.0
16,0.0
17,0.0
18,0.0
19,0.0
20,0.0
21,0.0
22,0.0
23,0.0
24,-105.8762708169142
25,5.998683269166544
26,1.9938781409254014
27,3.6948910030432134
28,4.030016935645149
29,-506.8820440612068
30,1.4276884182200074
31,2.14467143622945
32,-62.895992028690756
33,0.0
34,5.989995545639175
35,1.9934325595507194
36,3.6948910030432134
37,4.0300438576203765
38,-599.8701763359583
39,1.4276847713361487
40,2.1446661385264605
41,-74.47003308453118
42,0.0
43,5.997785796834383
44,2.1079870217147154
45,3.6948910030432134
46,4.6577748401440004
47,-633.8305397493488
48,1.428644404181517
49,2.1460601574320846
50,-69.50131904925064
51,0.0
52,5.997785796834351
53,2.107987021714563
54,3.6948910030432134
55,4.657774840143935
56,-633.8305397493106
57,1.4286444041815347
58,2.1460601574321223
59,-69.50131904925853
60,0.0
61,6.759400899265731
62,6.788002053367229
63,6.1105892245012035
64,-1.2860672215485014
65,3.6800320190757714
66,4.563416631509011
67,-5579.304584265747
68,3.962109173806561
69,0.0
70,0.0
71,0.0
72,4.567780301123321
73,2.9551848669867127
74,3.7
75,2.687179357700937
76,-116.26250605655287
77,1.3399164928778005
78,2.0125090811314643
79,4.300555869025541
80,6.314276257046583
81,0.0
82,-29.68896744878723
83,0.0
84,0.0
85,0.0
86,-30.533470014015275
2,1, 4, 1, 0, 5, 0.00,15.00,Saturday
7,3.7
8,-9.008128500723217
9,0.0
10,0.0
11,19.12
12,0.0
13,0.0
14,0.0
15,0.0
16,0.0
17,0.0
18,0.0
19,0.0
20,0.0
21,0.0
22,0.0
23,0.0
24,-112.24251080192889
25,5.936617887429022
26,1.7416047402926087
27,3.6948910030432134
28,4.080998485143845
29,-576.0007896953889
30,1.4153542412354296
31,2.1455441061789413
32,-72.25334350577509
33,0.0
34,5.927601202419602
35,1.7412025120901198
36,3.6948910030432134
37,4.081023085148335
38,-681.6996510615909