Program Version,EnergyPlus, Version 23.2.0-7636e6b3e9, YMD=2026.07.22 13:32
1,5,Environment Title[],Latitude[deg],Longitude[deg],Time Zone[],Elevation[m]
2,8,Day of Simulation[],Month[],Day of Month[],DST Indicator[1=yes 0=no],Hour[],StartMinute[],EndMinute[],DayType
3,5,Cumulative Day of Simulation[],Month[],Day of Month[],DST Indicator[1=yes 0=no],DayType  ! When Daily Report Variables Requested
4,2,Cumulative Days of Simulation[],Month[]  ! When Monthly Report Variables Requested
5,1,Cumulative Days of Simulation[] ! When Run Period Report Variables Requested
6,1,Calendar Year of Simulation[] ! When Annual Report Variables Requested
7,1,Environment,Site Outdoor Air Drybulb Temperature [C] !TimeStep
8,1,Environment,Site Sky Temperature [C] !TimeStep
9,1,Environment,Site Diffuse Solar Radiation Rate per Area [W/m2] !TimeStep
10,1,Environment,Site Direct Solar Radiation Rate per Area [W/m2] !TimeStep
11,1,Environment,Site Ground Temperature [C] !TimeStep
12,1,ZONE ONE,Zone Total Internal Radiant Heating Rate [W] !TimeStep
13,1,ZONE ONE,Zone Total Internal Convective Heating Rate [W] !TimeStep
14,1,ZONE ONE,Zone Windows Total Transmitted Solar Radiation Rate [W] !TimeStep
15,1,ZN001:WALL001,Surface Outside Face Sunlit Fraction [] !TimeStep
16,1,ZN001:WALL001,Surface Outside Face Incident Solar Radiation Rate per Area [W/m2] !TimeStep
17,1,ZN001:WALL002,Surface Outside Face Incident Solar Radiation Rate per Area [W/m2] !TimeStep
18,1,ZN001:WALL003,Surface Outside Face Incident Solar Radiation Rate per Area [W/m2] !TimeStep
19,1,ZN001:WALL004,Surface Outside Face Incident Solar Radiation Rate per Area [W/m2] !TimeStep
20,1,ZN001:ROOF001,Surface Outside Face Incident Solar Radiation Rate per Area [W/m2] !TimeStep
21,1,ZN001:WALL001:WIN001,Surface Outside Face Sunlit Fraction [] !TimeStep
22,1,ZN001:WALL001:WIN001,Surface Outside Face Incident Solar Radiation Rate per Area [W/m2] !TimeStep
23,1,ZN001:WALL001:WIN001,Surface Window Transmitted Solar Radiation Rate [W] !TimeStep
24,1,ZN001:WALL001:WIN001,Surface Window Net Heat Transfer Rate [W] !TimeStep
25,1,ZN001:WALL001,Surface Inside Face Temperature [C] !TimeStep
26,1,ZN001:WALL001,Surface Outside Face Temperature [C] !TimeStep
27,1,ZN001:WALL001,Surface Outside Face Convection Heat Transfer Coefficient [W/m2-K] !TimeStep
28,1,ZN001:WALL001,Surface Outside Face Net Thermal Radiation Heat Gain Rate [W] !TimeStep
29,1,ZN001:WALL001,Surface Outside Face Thermal Radiation to Sky Heat Transfer Coefficient [W/m2-K] !TimeStep
30,1,ZN001:WALL001,Surface Outside Face Thermal Radiation to Ground Heat Transfer Coefficient [W/m2-K] !TimeStep
31,1,ZN001:WALL001,Surface Outside Face Thermal Radiation to Air Heat Transfer Rate [W] !TimeStep
32,1,ZN001:WALL001,Surface Outside Face Solar Radiation Heat Gain Rate [W] !TimeStep
33,1,ZN001:WALL002,Surface Inside Face Temperature [C] !TimeStep
34,1,ZN001:WALL002,Surface Outside Face Temperature [C] !TimeStep
35,1,ZN001:WALL002,Surface Outside Face Convection Heat Transfer Coefficient [W/m2-K] !TimeStep
36,1,ZN001:WALL002,Surface Outside Face Net Thermal Radiation Heat Gain Rate [W] !TimeStep
37,1,ZN001:WALL002,Surface Outside Face Thermal Radiation to Sky Heat Transfer Coefficient [W/m2-K] !TimeStep
38,1,ZN001:WALL002,Surface Outside Face Thermal Radiation to Ground Heat Transfer Coefficient [W/m2-K] !TimeStep
39,1,ZN001:WALL002,Surface Outside Face Thermal Radiation to Air Heat Transfer Rate [W] !TimeStep
40,1,ZN001:WALL002,Surface Outside Face Solar Radiation Heat Gain Rate [W] !TimeStep
41,1,ZN001:WALL003,Surface Inside Face Temperature [C] !TimeStep
42,1,ZN001:WALL003,Surface Outside Face Temperature [C] !TimeStep
43,1,ZN001:WALL003,Surface Outside Face Convection Heat Transfer Coefficient [W/m2-K] !TimeStep
44,1,ZN001:WALL003,Surface Outside Face Net Thermal Radiation Heat Gain Rate [W] !TimeStep
45,1,ZN001:WALL003,Surface Outside Face Thermal Radiation to Sky Heat Transfer Coefficient [W/m2-K] !TimeStep
46,1,ZN001:WALL003,Surface Outside Face Thermal Radiation to Ground Heat Transfer Coefficient [W/m2-K] !TimeStep
47,1,ZN001:WALL003,Surface Outside Face Thermal Radiation to Air Heat Transfer Rate [W] !TimeStep
48,1,ZN001:WALL003,Surface Outside Face Solar Radiation Heat Gain Rate [W] !TimeStep
49,1,ZN001:WALL004,Surface Inside Face Temperature [C] !TimeStep
50,1,ZN001:WALL004,Surface Outside Face Temperature [C] !TimeStep
51,1,ZN001:WALL004,Surface Outside Face Convection Heat Transfer Coefficient [W/m2-K] !TimeStep
52,1,ZN001:WALL004,Surface Outside Face Net Thermal Radiation Heat Gain Rate [W] !TimeStep
53,1,ZN001:WALL004,Surface Outside Face Thermal Radiation to Sky Heat Transfer Coefficient [W/m2-K] !TimeStep
54,1,ZN001:WALL004,Surface Outside Face Thermal Radiation to Ground Heat Transfer Coefficient [W/m2-K] !TimeStep
55,1,ZN001:WALL004,Surface Outside Face Thermal Radiation to Air Heat Transfer Rate [W] !TimeStep
56,1,ZN001:WALL004,Surface Outside Face Solar Radiation Heat Gain Rate [W] !TimeStep
57,1,ZN001:FLR001,Surface Inside Face Temperature [C] !TimeStep
58,1,ZN001:FLR001,Surface Outside Face Temperature [C] !TimeStep
59,1,ZN001:ROOF001,Surface Inside Face Temperature [C] !TimeStep
60,1,ZN001:ROOF001,Surface Outside Face Temperature [C] !TimeStep
61,1,ZN001:ROOF001,Surface Outside Face Convection Heat Transfer Coefficient [W/m2-K] !TimeStep
62,1,ZN001:ROOF001,Surface Outside Face Net Thermal Radiation Heat Gain Rate [W] !TimeStep
63,1,ZN001:ROOF001,Surface Outside Face Thermal Radiation to Sky Heat Transfer Coefficient [W/m2-K] !TimeStep
64,1,ZN001:ROOF001,Surface Outside Face Thermal Radiation to Ground Heat Transfer Coefficient [W/m2-K] !TimeStep
65,1,ZN001:ROOF001,Surface Outside Face Thermal Radiation to Air Heat Transfer Rate [W] !TimeStep
66,1,ZN001:ROOF001,Surface Outside Face Solar Radiation Heat Gain Rate [W] !TimeStep
67,1,ZN001:WALL001:WIN001,Surface Inside Face Temperature [C] !TimeStep
68,1,ZN001:WALL001:WIN001,Surface Outside Face Temperature [C] !TimeStep
69,1,ZN001:WALL001:WIN001,Surface Outside Face Convection Heat Transfer Coefficient [W/m2-K] !TimeStep
70,1,ZN001:WALL001:WIN001,Surface Outside Face Net Thermal Radiation Heat Gain Rate [W] !TimeStep
71,1,ZN001:WALL001:WIN001,Surface Outside Face Thermal Radiation to Sky Heat Transfer Coefficient [W/m2-K] !TimeStep
72,1,ZN001:WALL001:WIN001,Surface Outside Face Thermal Radiation to Ground Heat Transfer Coefficient [W/m2-K] !TimeStep
73,1,ZN001:WALL001:WIN001,Surface Outside Face Thermal Radiation to Air Heat Transfer Rate [W] !TimeStep
74,1,ZONE ONE,Zone Mean Air Temperature [C] !TimeStep
75,1,ZONE ONE,Zone Air Heat Balance Internal Convective Heat Gain Rate [W] !TimeStep
76,1,ZONE ONE,Zone Air Heat Balance Surface Convection Rate [W] !TimeStep
77,1,ZONE ONE,Zone Air Heat Balance Outdoor Air Transfer Rate [W] !TimeStep
78,1,ZONE ONE,Zone Air Heat Balance Air Energy Storage Rate [W] !TimeStep
End of Data Dictionary
1,RUN PERIOD 1,  55.95,  -3.37,   0.00,  41.10
2,1, 7, 1, 0, 1, 0.00,15.00,Saturday
7,11.524999999999999
8,6.247163656077078
9,0.0
10,0.0
11,19.07
12,0.0
13,0.0
14,0.0
15,0.0
16,0.0
17,0.0
18,0.0
19,0.0
20,0.0
21,0.0
22,0.0
23,0.0
24,-182.28717838387067
25,17.279827176537744
26,11.119007167275292
27,9.865688527885206
28,-391.108936752917
29,1.6163444722717217
30,2.350414564787505
31,-16.244921650647814
32,0.0
33,17.263853920883143
34,11.086953110066352
35,8.78464244742516
36,-452.58563468713254
37,1.6164246368010877
38,2.3505293465984565
39,-20.767861675837857
40,0.0
41,17.26385392088314
42,11.086953110066352
43,8.78464244742516
44,-452.58563468713254
45,1.6164246368010877
46,2.3505293465984565
47,-20.767861675837857
48,0.0
49,17.265923661560066
50,11.118611641162836
51,9.86552640383121
52,-462.8309090852219
53,1.616341063978406
54,2.350409684697008
55,-19.248234352471712
56,0.0
57,18.241358430990367
58,18.281755817295426
59,17.513528628691713
60,10.093526179777582
61,11.495288205372495
62,-4079.3286782079917
63,4.566343206807379
64,0.0
65,0.0
66,0.0
67,15.014073993585498
68,12.427107264054769
69,5.8647344702961295
70,-117.1159708154264
71,1.5198278901151212
72,2.209872499900245
73,-5.713016433724448
74,17.720062183854335
75,0.0
76,-64.46874724270955
77,0.0
78,-58.46174989313633
2,1, 7, 1, 0, 1,15.00,30.00,Saturday
7,11.95
8,1.7952572663021442
9,0.0
10,0.0
11,19.07
12,0.0
13,0.0
14,0.0
15,0.0
16,0.0
17,0.0
18,0.0
19,0.0
20,0.0
21,0.0
22,0.0
23,0.0
24,-187.53626953675004
25,17.2194830958352
26,11.0003670478674
27,9.448353078624285
28,-685.0223810989639
29,1.5779129269486325
30,2.3545791303386587
31,-38.34253949895379
32,0.0
33,17.200926690472745
34,10.931986855884885
35,8.478208997519197
36,-788.7083467730155
37,1.577638645947257
38,2.3541818708925675
39,-48.66411903873933
40,0.0
41,17.200926690472755
42,10.931986855884885
43,8.478208997519197
44,-788.7083467730155
45,1.577638645947257
46,2.3541818708925675
47,-48.66411903873933
48,0.0
49,17.20517845844197
50,10.999955487352738
51,9.448287112360125
52,-810.7346328631384
53,1.5779095422456162
54,2.354574228053233
55,-45.406190208222455
56,0.0
57,18.1997109205322
58,18.241358430990367
59,17.436391726744716
60,9.115404088709774
61,11.008361199925378
62,-7545.7360294438995
63,4.438251232909501
64,0.0
65,0.0
66,0.0
67,14.88471330972908
68,12.221314374031863
69,5.643077248606465
70,-158.86307846882232
71,1.483199031739874
72,2.212845188085932
73,-1.7202035712831887
74,17.671113918200906
75,0.0
76,-77.72391161567279
77,0.0
78,-70.230807334163
2,1, 7, 1, 0, 1,30.00,45.00,Saturday
7,12.375000000000002
8,-2.884055518863761
9,0.0
10,0.0
11,19.07
12,0.0
13,0.0
14,0.0
15,0.0
16,0.0
17,0.0
18,0.0
19,0.0
20,0.0
21,0.0
22,0.0
23,0.0
24,-193.38314136028626
25,17.152047441883763
26,10.856529268486117
27,9.096049767045313
28,-971.7767070790318
29,1.5381825767140485
30,2.3583906570237914
31,-61.53371001425342
32,0.0
33,17.13128264956974
34,10.758443707658788
35,8.239968369748839
36,-1118.5256451799576
37,1.5376042672929582
38,2.3575428911007705
39,-77.5311479108464
40,0.0
41,17.13128264956974
42,10.758443707658783
43,8.239968369748839
44,-1118.525645179956
45,1.5376042672929582
46,2.3575428911007705
47,-77.53114791084666
48,0.0
49,17.137309962942954
50,10.856097070566015
51,9.096010842751049
52,-1150.1625698164046
53,1.5381790954710537
54,2.3583855537548333
55,-72.85880966724552
56,0.0
57,18.156370692416303
58,18.1997109205322
59,17.352229615444248
60,8.064808740048681
61,10.596918046165936
62,-10949.320059710524
63,4.305743407154586
64,0.0
65,0.0
66,0.0
67,14.742627283101342
68,11.992827008328902
69,5.434279798052959
70,-199.59467812487583
71,1.4453043452931351
72,2.215394758004043
73,2.4255814519325005
74,17.614100399613694
75,0.0
76,-87.5240094124471
77,0.0
78,-81.81701941965308
2,1, 7, 1, 0, 1,45.00,60.00,Saturday
7,12.8
8,-7.819875967085466
9,0.0
10,0.0
11,19.07
12,0.0
13,0.0
14,0.0
15,0.0
16,0.0
17,0.0
18,0.0
19,0.0
20,0.0
21,0.0
22,0.0
23,0.0
24,-199.3716511542233
25,17.077807231982995
26,10.687966641265449
27,8.77110861615897
28,-1251.5404243701255
29,1.497080076256931
30,2.3618980176794566
31,-85.7955361753584
32,0.0
33,17.05528334026654
34,10.567529787804837
35,8.027162132607343
36,-1442.4690836543439
37,1.4962608092621836
38,2.3606816614258053
39,-107.30713133352103
40,0.0
41,17.05528334026654
42,10.567529787804837
43,8.027162132607343
44,-1442.4690836543439
45,1.4962608092621836
46,2.3606816614258053
47,-107.30713133352103
48,0.0
49,17.06263233187235
50,10.687512413047239
51,8.771083332155197
52,-1481.3152381742111
53,1.4970764654407236
54,2.361892656780032
55,-101.57883438134408
56,0.0
57,18.111057152021843
58,18.156370692416303
59,17.261229940047954
60,6.938142466585155
61,10.211722489413514
62,-14289.429451742712
63,4.16885611617159
64,0.0
65,0.0
66,0.0
67,14.592440436040988
68,11.753303812917864
69,5.367911397232622
70,-239.82061333708776
71,1.4061594293895432
72,2.2176875494939354
73,6.649686469917008
74,17.550419260890756
75,0.0
76,-95.4988444817426
77,0.0
78,-91.40333995271511
2,1, 7, 1, 0, 2, 0.00,15.00,Saturday
7,12.725000000000001
8,-7.525293383948849
9,0.0
10,0.0
11,19.07
12,0.0
13,0.0
14,0.0
15,0.0
16,0.0
17,0.0
18,0.0
19,0.0
20,0.0
21,0.0
22,0.0
23,0.0
24,-198.50676070639622
25,17.02716566989036
26,10.625726241508433
27,8.597004050833998
28,-1223.8821717853439
29,1.4980251459104008
30,2.3588740391658454
31,-85.16677544049264
32,0.0
33,17.005341156754188
34,10.515507375639487
35,7.9153932482775895
36,-1412.83006784621
37,1.4970193573469017
38,2.357382024269326
39,-106.05170372719276
40,0.0
41,17.005341156754188
42,10.515507375639487
43,7.9153932482775895
44,-1412.83006784621
45,1.4970193573469017
46,2.357382024269326
47,-106.05170372719276
48,0.0
49,17.011967450423946
50,10.625244537801022
51,8.596980139909236
52,-1448.5671335664085
53,1.4980213514753387
54,2.3588684104425655
55,-100.83584759287835
56,0.0
57,18.066699054262987
58,18.111057152021843
59,17.213091028006957
60,6.899714342140403
61,9.984602828957396
62,-13901.321361824599
63,4.149254701387669
64,0.0
65,0.0
66,0.0
67,14.535704477102968
68,11.702083568948638
69,5.291982841841105
70,-236.08997038077115
71,1.4064842757845661
72,2.2140274586174864
73,6.494302393453106
74,17.488001900479794
75,0.0
76,-84.8877146167936
77,0.0
78,-89.60864339185868
2,1, 7, 1, 0, 2,15.00,30.00,Saturday
7,12.65
8,-7.23168764496387
9,0.0
10,0.0
11,19.07
12,0.0
13,0.0
14,0.0
15,0.0
16,0.0
17,0.0
18,0.0
19,0.0
20,0.0
21,0.0
22,0.0
23,0.0
24,-197.97654791965857
25,16.97387947609104
26,10.563515328107613
27,8.428711464208886
28,-1196.9880252309815
29,1.4998532578506831
30,2.3571693580170097
31,-84.58548965732788
32,0.0
33,16.952661268970868
34,10.462955885036706
35,7.808674106670004
36,-1384.1595734808077
37,1.4989324135851323
38,2.355804532833537
39,-104.90147406649963
40,0.0
41,16.952661268970868
42,10.462955885036706
43,7.808674106670004
44,-1384.1595734808077
45,1.4989324135851323
46,2.355804532833537
47,-104.90147406649963
48,0.0
49,16.95871840908292
50,10.563022879679652
51,8.428686988708987
52,-1416.728693250763
53,1.4998492323010097
54,2.357163391612232
55,-100.14826011404665
56,0.0
57,18.021796922887972
58,18.066699054262987
59,17.161042103792017
60,6.84668801926297
61,9.788003032184767
62,-13585.873335046466
63,4.154943070109831
64,0.0
65,0.0
66,0.0
67,14.489932996967354
68,11.661956970366191
69,5.195085428990685
70,-232.83697873671062
71,1.4082802094638895
72,2.2125586654275726
73,6.269101114842297
74,17.431324924593152
75,0.0
76,-75.10472489984004
77,0.0
78,-81.38340809295273
2,1, 7, 1, 0, 2,30.00,45.00,Saturday
7,12.575
8,-6.9390512251527525
9,0.0
10,0.0
11,19.07
12,0.0
13,0.0
14,0.0
15,0.0
16,0.0
17,0.0
18,0.0
19,0.0
20,0.0
21,0.0
22,0.0
23,0.0
24,-197.4576218208167
25,16.92313546803359
26,10.501848078996037
27,8.26023706807235
28,-1170.240139954407
29,1.5016766444757883
30,2.355465865581201
31,-83.98291988055101
32,0.0
33,16.902525652276918
34,10.41093383397291
35,7.701119270254706
36,-1355.6493033429924
37,1.5008361505395036
38,2.354221205592086
39,-103.72699570928073
40,0.0
41,16.902525652276918
42,10.41093383397291
43,7.701119270254706
44,-1355.6493033429924
45,1.5008361505395036
46,2.354221205592086
47,-103.72699570928073
48,0.0
49,16.908001372749396
50,10.50135065560001
51,8.260212992508857
52,-1385.065353735069
53,1.5016725275098843
54,2.355459768942662
55,-99.43520944006072
56,0.0
57,17.976711847457672
58,18.021796922887972
59,17.111435779087557
60,6.79458440537226
61,9.590712355681474
62,-13270.21358640986
63,4.160279014166899
64,0.0
65,0.0
66,0.0
67,14.444453023096344
68,11.622708311905683
69,5.096673798260925
70,-229.6208803493675
71,1.4101585773414471
72,2.2112193746541053
73,6.0386300869977
74,17.379837972123983
75,0.0
76,-70.4681714647219
77,0.0
78,-73.94406939144312
2,1, 7, 1, 0, 2,45.00,60.00,Saturday
7,12.5
8,-6.6473766902308284
9,0.0
10,0.0
11,19.07
12,0.0
13,0.0
14,0.0
15,0.0
16,0.0
17,0.0
18,0.0
19,0.0
20,0.0
21,0.0
22,0.0
23,0.0
24,-197.0010706806215
25,16.8742505250413
26,10.440520941786826
27,8.091608518087693
28,-1143.587317537105
29,1.5034996386507478
30,2.3537699238423775
31,-83.36759878377445
32,0.0
33,16.854254299547268
34,10.35919038611856
35,7.59274595669568
36,-1327.2280495616478
37,1.5027394431252326
38,2.3526451437126785
39,-102.54094249203573
40,0.0
41,16.854254299547268
42,10.35919038611856
43,7.59274595669568
44,-1327.2280495616478
45,1.5027394431252326
46,2.3526451437126785
47,-102.54094249203573
48,0.0
49,16.85914965501782
50,10.440018482300362
51,8.091585193141015
52,-1353.5145695305193
53,1.5034954784504924
54,2.353763768475693
55,-98.7070706610978
56,0.0
57,17.931599023859956
58,17.976711847457672
59,17.063578745318676
60,6.742978158321556
61,9.393121054014316
62,-12955.135511287159
63,4.165622783175323
64,0.0
65,0.0
66,0.0
67,14.40087348466767
68,11.584710234245335
69,4.9978381509554834
70,-226.45767719140127
71,1.4120393621648917
72,2.209890834051068
73,5.800545805409947
74,17.331406377872455
75,0.0
76,-68.38395873931411
77,0.0
78,-69.56764943482646
2,1, 7, 1, 0, 3, 0.00,15.00,Saturday
7,12.45
8,-6.705635000260486
9,0.0
10,0.0
11,19.07
12,0.0
13,0.0
14,0.0
15,0.0
16,0.0
17,0.0
18,0.0
19,0.0
20,0.0
21,0.0
22,0.0
23,0.0
24,-197.4118508530645
25,16.82107100436368
26,10.344903869663355
27,7.808735179174781
28,-1131.3468857218322
29,1.5025195300618743
30,2.3523896803927795
31,-85.16879556300326
32,0.0
33,16.80192847168644
34,10.277268888066903
35,7.4088541068495335
36,-1317.167066706139
37,1.5018397496379248
38,2.3513838532475635
39,-104.01778713138691
40,0.0
41,16.80192847168644
42,10.277268888066903
43,7.4088541068495335
44,-1317.167066706139
45,1.5018397496379248
46,2.3513838532475635
47,-104.01778713138691
48,0.0
49,16.805974166716915
50,10.344394382177844
51,7.808714013688051
52,-1339.0232998141632
53,1.5025153295656395
54,2.3523834652237583
55,-100.83948311076688
56,0.0
57,17.88602685509917
58,17.931599023859956
59,17.010175333817205
60,6.551080008502431
61,9.062156517946471
62,-12818.115644145582
63,4.163114268154846
64,0.0
65,0.0
66,0.0
67,14.34661450932515
68,11.524051221020386
69,4.838309014737802
70,-225.97834928485454
71,1.4113038146744088
72,2.208868103847077
73,5.864681756492265
74,17.28338403173621
75,0.0
76,-69.95284377237536
77,0.0
78,-68.99120677086005
2,1, 7, 1, 0, 3,15.00,30.00,Saturday
7,12.4
8,-6.763931550078951
9,0.0
10,0.0
11,19.07
12,0.0
13,0.0
14,0.0
15,0.0
16,0.0
17,0.0
18,0.0
19,0.0
20,0.0
21,0.0
22,0.0
23,0.0
24,-197.78628056906712
25,16.768076051573825
26,10.24740325329032
27,7.524440400302096
28,-1118.4027907850464
29,1.5012530293409203
30,2.3505860348178267
31,-87.02849093114116
32,0.0
33,16.74981134901804
34,10.194181448653197
35,7.221788130357011
36,-1306.5277319073919
37,1.5006880400306508
38,2.349750029141875
39,-105.53217723468683
40,0.0
41,16.74981134901804
42,10.194181448653197
43,7.221788130357011
44,-1306.5277319073919
45,1.5006880400306508
46,2.349750029141875
47,-105.53217723468683
48,0.0
49,16.752975755471276
50,10.246883071069291
51,7.52442208577563
52,-1323.6979566589582
53,1.501248772644451
54,2.350579736280305
55,-103.04131066906031
56,0.0
57,17.84018400038842
58,17.88602685509917
59,16.956960058635033
60,6.353619573969077
61,8.727306836425166
62,-12665.993965981013
63,4.157349892495265
64,0.0
65,0.0
66,0.0
67,14.290800077690847
68,11.461825381832227
69,4.681265195201821
70,-225.4325618709926
71,1.4103905173133766
72,2.2075827564516777
73,5.938609569014009
74,17.23439721262451
75,0.0
76,-71.72747021673366
77,0.0
78,-70.38868724618544
2,1, 7, 1, 0, 3,30.00,45.00,Saturday
7,12.350000000000001
8,-6.822266398304009
9,0.0
10,0.0
11,19.07
12,0.0
13,0.0
14,0.0
15,0.0
16,0.0
17,0.0
18,0.0
19,0.0
20,0.0
21,0.0
22,0.0
23,0.0
24,-198.16114664207475
25,16.714169141191597
26,10.147639598570073
27,7.2403854617323375
28,-1104.8650711744183
29,1.4999712169261075
30,2.348760070248404
31,-88.97602753189841
32,0.0
33,16.696831239492063
34,10.109566079314257
35,7.032533818733944
36,-1295.414873844764
37,1.4995268833951723
38,2.348102575154456
39,-107.11695804357507
40,0.0
41,16.696831239492063
42,10.109566079314257
43,7.032533818733944
44,-1295.414873844764
45,1.4995268833951723
46,2.348102575154456
47,-107.11695804357507
48,0.0
49,16.6990691183389
50,10.147107648211012
51,7.2403700873747106
52,-1307.6695766650937
53,1.4999668735222587
54,2.3487536431921283
55,-105.34716485350943
56,0.0
57,17.79399461006892
58,17.84018400038842
59,16.90279402800283
60,6.148073227275853
61,8.39191556264846
62,-12506.111583349673
63,4.151461523152936
64,0.0
65,0.0
66,0.0
67,14.23465094108775
68,11.399158091852314
69,4.5242138367612
70,-224.86881782505114
71,1.4094650446605643
72,2.2062797378195906
73,6.01522614066124
74,17.18428562619319
75,0.0
76,-72.88971332495493
77,0.0
78,-72.01728255456842
2,1, 7, 1, 0, 3,45.00,60.00,Saturday
7,12.3
8,-6.880639603694988
9,0.0
10,0.0
11,19.07
12,0.0
13,0.0
14,0.0
15,0.0
16,0.0
17,0.0
18,0.0
19,0.0
20,0.0
21,0.0
22,0.0
23,0.0
24,-198.5246085833948
25,16.65935069301697
26,10.04553086229898
27,6.956702830725243
28,-1090.7113234559295
29,1.4986709546185144
30,2.3469071404837294
31,-91.01427367233629
32,0.0
33,16.642986657509976
34,10.023365915445552
35,6.841007127750176
36,-1283.809135983028
37,1.49835327520951
38,2.3464370439082427
39,-108.77446342023278
40,0.0
41,16.642986657509976
42,10.023365915445552
43,6.841007127750176
44,-1283.809135983028
45,1.49835327520951
46,2.3464370439082427
47,-108.77446342023278
48,0.0
49,16.644251893443986
50,10.04498672211032
51,6.9566906357152885
52,-1290.9118678838665
53,1.4986665157069277
54,2.3469005718746234
55,-107.76041081881729
56,0.0
57,17.747420480227486
58,17.79399461006892
59,16.847667396773826
60,5.933860130439852
61,8.056007366399973
62,-12337.782438591916
63,4.145391163608273
64,0.0
65,0.0
66,0.0
67,14.177800631063121
68,11.335907329194868
69,4.367049036470926
70,-224.2810538988566
71,1.4085362304528692
72,2.2049721164158838
73,6.095419392886776
74,17.1332899217452
75,0.0
76,-73.80790029993906
77,0.0
78,-73.30075735683617
2,1, 7, 1, 0, 4, 0.00,15.00,Saturday
7,12.275000000000002
8,-5.951238527387829
9,0.0
10,0.0
11,19.07
12,0.0
13,0.0
14,0.0
15,0.0
16,0.0
17,0.0
18,0.0
19,0.0
20,0.0
21,0.0
22,0.0
23,0.0
24,-194.14495087319048
25,16.63320280791193
26,10.152078006739016
27,7.067761762095335
28,-1048.1315755802855
29,1.5052757680158388
30,2.345336415605558
31,-85.63422312462777
32,0.0
33,16.61663196369065
34,10.124617034249015
35,6.9163496469206525
36,-1231.8487665217024
37,1.5050905024970933
38,2.3450628803167555
39,-102.66862857994442
40,0.0
41,16.61663196369065
42,10.124617034249015
43,6.9163496469206525
44,-1231.8487665217024
45,1.5050905024970933
46,2.3450628803167555
47,-102.66862857994442
48,0.0
49,16.61829533133246
50,10.151522482127014
51,7.067749293155423
52,-1240.506036010089
53,1.5052712195876963
54,2.345329700087769
55,-101.39252137815558
56,0.0
57,17.702719404292825
58,17.747420480227486
59,16.82155514520128
60,6.276083428412698
61,8.185813178018492
62,-11817.661583604393
63,4.1613118908859725
64,0.0
65,0.0
66,0.0
67,14.188357392411774
68,11.406394416300316
69,4.435683613574547
70,-216.37749444060495
71,1.4150224957692907
72,2.203948592354764
73,5.493019920145785
74,17.08658569922898
75,0.0
76,-61.56831831414404
77,0.0
78,-67.1431898828962
2,1, 7, 1, 0, 4,15.00,30.00,Saturday
7,12.25
8,-5.031435730263695
9,0.0
10,0.0
11,19.07
12,0.0
13,0.0
14,0.0
15,0.0
16,0.0
17,0.0
18,0.0
19,0.0
20,0.0
21,0.0
22,0.0
23,0.0
24,-190.1713505254506
25,16.605258803315007
26,10.25385291441546
27,7.1840253620426875
28,-1005.5981444824235
29,1.513581506263332
30,2.346341488878596
31,-80.54255353580065
32,0.0
33,16.588676274350032
34,10.222043560762563
35,6.9953019895133774
36,-1180.077217051367
37,1.5133513568561527
38,2.34600245055099
39,-96.8483213668573
40,0.0
41,16.588676274350032
42,10.222043560762563
43,6.9953019895133774
44,-1180.077217051367
45,1.5133513568561527
46,2.34600245055099
47,-96.8483213668573
48,0.0
49,16.590604231167834
50,10.253308937162597
51,7.184009427503614
52,-1190.1621011599518
53,1.5135768501303868
54,2.346334629834387
55,-95.36492308346486
56,0.0
57,17.658625541987046
58,17.702719404292825
59,16.79371417874215
60,6.600967671428759
61,8.325806340679733
62,-11320.243625799167
63,4.190022786372864
64,0.0
65,0.0
66,0.0
67,14.207339801082867
68,11.482535425394076
69,4.486502569037228
70,-208.71922651133292
71,1.4225179271261716
72,2.2044751987439923
73,4.854713089553011
74,17.046511258938498
75,0.0
76,-51.72606680046284
77,0.0
78,-57.62014342850323
2,1, 7, 1, 0, 4,30.00,45.00,Saturday
7,12.224999999999998
8,-4.121003057659834
9,7.5
10,6.5
11,19.07
12,0.0
13,0.0
14,24.92085313058223
15,0.0
16,4.073093485299696
17,9.396308110315235
18,9.137349041523901
19,4.073093485299696
20,7.540058642658336
21,0.0
22,4.073093485299696
23,24.92085313058223
24,-158.9344117899112
25,16.62359378489245
26,10.605146311399945
27,7.301167878176382
28,-1029.990068841703
29,1.521808637399082
30,2.3472881534852355
31,-65.34688327126342
32,179.81707581346654
33,16.631961496594972
34,10.90949821006608
35,7.074557056557943
36,-1315.6069349407483
37,1.5215413397828808
38,2.346895268748836
39,-62.761846280796824
40,491.0318933765291
41,16.63091100540351
42,10.893225304449663
43,7.074557056557943
44,-1310.441303064804
45,1.5215413397828808
46,2.346895268748836
47,-63.54124434091517
48,477.49922071799426
49,16.612219443584422
50,10.605117462846279
51,7.301148924098718
52,-1219.1983104191534
53,1.5218040659529506
54,2.3472814342027624
55,-77.35302350981358
56,212.85155643105207
57,17.619557012841927
58,17.658625541987046
59,16.81177817729376
60,7.359554236048268
61,8.46616210408706
62,-11247.758681639712
63,4.21825748491464
64,0.0
65,0.0
66,1313.4269431523119
67,14.265563829592907
68,11.596789246613184
69,4.5363301504676725
70,-202.70465969905314
71,1.4300203886051714
72,2.2050675714284833
73,3.9757065557980917
74,17.019644655550852
75,0.0
76,-25.9816124301886
77,0.0
78,-38.63322112101244
2,1, 7, 1, 0, 4,45.00,60.00,Saturday
7,12.2
8,-3.2197207632237905
9,15.0
10,13.0
11,19.07
12,0.0
13,0.0
14,48.9097634592902
15,0.0
16,7.993869145238597
17,23.346886110278952
18,21.10197596976399
19,7.993869145238597
20,15.43385979314413
21,0.0
22,7.993869145238597
23,48.9097634592902
24,-129.4464832839247
25,16.648067507506035
26,10.937593651603132
27,7.431116400412604
28,-1051.0787723031804
29,1.5321015380650418
30,2.351320493199243
31,-50.968803189922816
32,352.90969365672055
33,16.698954817502138
34,11.861051425974726
35,7.183367754464635
36,-1540.947147023658
37,1.534670906735944
38,2.3550885590624575
39,-16.0452160669541
40,1220.060640475513
41,16.689936499837877
42,11.721737522372008
43,7.182284524772187
44,-1496.3589472707924
45,1.5345334343922419
46,2.354886954351351
47,-22.739065287232876
48,1102.746216148888
49,16.639788915083436
50,10.937647362790344
51,7.4311148672673575
52,-1244.1910344537848
53,1.5321012947003787
54,2.351320136290893
55,-60.329776452973185
56,417.7432940371128
57,17.584135724498832
58,17.619557012841927
59,16.83706952378882
60,8.113290932236403
61,8.617978233101057
62,-11204.121914654948
63,4.256597198626395
64,0.0
65,0.0
66,2688.473425719114
67,14.34006221729112
68,11.716923974084693
69,4.5802448026963845
70,-196.94944638593282
71,1.4377877613071524
72,2.2061022926252587
73,3.058733331168648
74,17.00876376517719
75,0.0
76,-2.82140136905619
77,0.0
78,-15.64695929881593
2,1, 7, 1, 0, 5, 0.00,15.00,Saturday
7,12.249999999999998
8,-2.4940201548757273
9,22.5
10,19.5
11,19.07
12,0.0
13,0.0
14,73.32769528132457
15,0.0
16,11.984764581589843
17,37.584733266535174
18,31.59048688998805
19,11.984764581589843
20,23.70567110412001
21,0.0
22,11.984764581589843
23,73.32769528132457
24,-98.93301985268388
25,16.68338899591537
26,11.303611514901162
27,7.4485192659563175
28,-1081.951185353815
29,1.540845035612924
30,2.356058122667193
31,-38.23483331046096
32,529.0979274480662
33,16.777235768537953
34,12.849014138347554
35,7.3051702365394835
36,-1783.635690856844
37,1.548678390778218
38,2.3675268794496653
39,29.189112582847823
40,1964.1014876532643
41,16.753603529659316
42,12.484189246990125
43,7.27221456168837
44,-1665.18628457656
45,1.5474944253540288
46,2.365793513990226
47,11.553587399016434
48,1650.85440027752
49,16.678368404754583
50,11.303798870652816
51,7.448523090304913
52,-1280.778416973572
53,1.5408454902197286
54,2.356058788285146
55,-45.25001953169956
56,626.2993481141388
57,17.552543418873988
58,17.584135724498832
59,16.870705093148146
60,8.833952859449843
61,8.63781040216128
62,-11289.684168842028
63,4.291011247031878
64,0.0
65,0.0
66,4129.3667077741975
67,14.434297826011175
68,11.864721775530256
69,4.5696586909370485
70,-192.474733036557
71,1.4442899625325711
72,2.208077449485533
73,2.442037614481557
74,17.011309026057717
75,0.0
76,12.086819172367044
77,0.0
78,3.660118008530905
2,1, 7, 1, 0, 5,15.00,30.00,Saturday
7,12.3
8,-1.7741104232762268
9,30.0
10,26.0
11,19.07
12,0.0
13,0.0
14,98.13570843937234
15,0.0
16,16.039415369338087
17,50.99035277766082
18,40.00261460338221
19,16.039415369338087
20,32.3765921117107
21,0.0
22,16.039415369338087
23,98.13570843937234
24,-68.24050246628676
25,16.726206176074783
26,11.672199179765578
27,7.475568243109648
28,-1114.1009306169394
29,1.5498609332586404
30,2.361220033245516
31,-25.34919827788294
32,708.1008034510488
33,16.860378520912924
34,13.783241063449692
35,7.266051692562093
36,-2012.6433925843812
37,1.5630348396161544
38,2.380476076700058
39,72.30518077165257
40,2664.6518158408876
41,16.81627605076668
42,13.107529091463496
43,7.3789731219013825
44,-1790.5833697821226
45,1.5599161004009328
46,2.3759177373104374
47,39.40298099480045
48,2090.4550338389636
49,16.7245160363916
50,11.672526906270317
51,7.475587485778917
52,-1318.8806441523625
53,1.5498625245050135
54,2.3612223593147874
55,-29.990376887472124
56,838.1871267942549
57,17.52498700220271
58,17.552543418873988
59,16.9120999952108
60,9.574818578467687
61,8.660282372570496
62,-11399.344991210637
63,4.324691018005496
64,0.0
65,0.0
66,5639.782185033645
67,14.534993406176795
68,12.016330747775555
69,4.554036713522293
70,-188.174091491849
71,1.4509907384864271
72,2.210375225274677
73,1.799908681404827
74,17.022981847136354
75,0.0