Program Version,EnergyPlus, Version 23.2.0-7636e6b3e9, YMD=2026.07.22 10:24
1,5,Environment Title[],Latitude[deg],Longitude[deg],Time Zone[],Elevation[m]
2,8,Day of Simulation[],Month[],Day of Month[],DST Indicator[1=yes 0=no],Hour[],StartMinute[],EndMinute[],DayType
3,5,Cumulative Day of Simulation[],Month[],Day of Month[],DST Indicator[1=yes 0=no],DayType  ! When Daily Report Variables Requested
4,2,Cumulative Days of Simulation[],Month[]  ! When Monthly Report Variables Requested
5,1,Cumulative Days of Simulation[] ! When Run Period Report Variables Requested
6,1,Calendar Year of Simulation[] ! When Annual Report Variables Requested
7,1,Environment,Site Outdoor Air Drybulb Temperature [C] !TimeStep
8,1,Environment,Site Sky Temperature [C] !TimeStep
9,1,Environment,Site Diffuse Solar Radiation Rate per Area [W/m2] !TimeStep
10,1,Environment,Site Direct Solar Radiation Rate per Area [W/m2] !TimeStep
11,1,Environment,Site Ground Temperature [C] !TimeStep
12,1,ZONE ONE,Zone Total Internal Radiant Heating Rate [W] !TimeStep
13,1,ZONE ONE,Zone Total Internal Convective Heating Rate [W] !TimeStep
14,1,ZONE ONE,Zone Windows Total Transmitted Solar Radiation Rate [W] !TimeStep
15,1,ZN001:WALL001,Surface Outside Face Sunlit Fraction [] !TimeStep
16,1,ZN001:WALL001,Surface Outside Face Incident Solar Radiation Rate per Area [W/m2] !TimeStep
17,1,ZN001:WALL002,Surface Outside Face Incident Solar Radiation Rate per Area [W/m2] !TimeStep
18,1,ZN001:WALL003,Surface Outside Face Incident Solar Radiation Rate per Area [W/m2] !TimeStep
19,1,ZN001:WALL004,Surface Outside Face Incident Solar Radiation Rate per Area [W/m2] !TimeStep
20,1,ZN001:ROOF001,Surface Outside Face Incident Solar Radiation Rate per Area [W/m2] !TimeStep
21,1,ZN001:WALL001:WIN001,Surface Outside Face Sunlit Fraction [] !TimeStep
22,1,ZN001:WALL001:WIN001,Surface Outside Face Incident Solar Radiation Rate per Area [W/m2] !TimeStep
23,1,ZN001:WALL001:WIN001,Surface Window Transmitted Solar Radiation Rate [W] !TimeStep
24,1,ZN001:WALL001:WIN001,Surface Window Net Heat Transfer Rate [W] !TimeStep
25,1,ZN001:WALL001,Surface Inside Face Temperature [C] !TimeStep
26,1,ZN001:WALL001,Surface Outside Face Temperature [C] !TimeStep
27,1,ZN001:WALL001,Surface Outside Face Outdoor Air Drybulb Temperature [C] !TimeStep
28,1,ZN001:WALL001,Surface Outside Face Convection Heat Transfer Coefficient [W/m2-K] !TimeStep
29,1,ZN001:WALL001,Surface Outside Face Net Thermal Radiation Heat Gain Rate [W] !TimeStep
30,1,ZN001:WALL001,Surface Outside Face Thermal Radiation to Sky Heat Transfer Coefficient [W/m2-K] !TimeStep
31,1,ZN001:WALL001,Surface Outside Face Thermal Radiation to Ground Heat Transfer Coefficient [W/m2-K] !TimeStep
32,1,ZN001:WALL001,Surface Outside Face Thermal Radiation to Air Heat Transfer Rate [W] !TimeStep
33,1,ZN001:WALL001,Surface Outside Face Solar Radiation Heat Gain Rate [W] !TimeStep
34,1,ZN001:WALL002,Surface Inside Face Temperature [C] !TimeStep
35,1,ZN001:WALL002,Surface Outside Face Temperature [C] !TimeStep
36,1,ZN001:WALL002,Surface Outside Face Outdoor Air Drybulb Temperature [C] !TimeStep
37,1,ZN001:WALL002,Surface Outside Face Convection Heat Transfer Coefficient [W/m2-K] !TimeStep
38,1,ZN001:WALL002,Surface Outside Face Net Thermal Radiation Heat Gain Rate [W] !TimeStep
39,1,ZN001:WALL002,Surface Outside Face Thermal Radiation to Sky Heat Transfer Coefficient [W/m2-K] !TimeStep
40,1,ZN001:WALL002,Surface Outside Face Thermal Radiation to Ground Heat Transfer Coefficient [W/m2-K] !TimeStep
41,1,ZN001:WALL002,Surface Outside Face Thermal Radiation to Air Heat Transfer Rate [W] !TimeStep
42,1,ZN001:WALL002,Surface Outside Face Solar Radiation Heat Gain Rate [W] !TimeStep
43,1,ZN001:WALL003,Surface Inside Face Temperature [C] !TimeStep
44,1,ZN001:WALL003,Surface Outside Face Temperature [C] !TimeStep
45,1,ZN001:WALL003,Surface Outside Face Outdoor Air Drybulb Temperature [C] !TimeStep
46,1,ZN001:WALL003,Surface Outside Face Convection Heat Transfer Coefficient [W/m2-K] !TimeStep
47,1,ZN001:WALL003,Surface Outside Face Net Thermal Radiation Heat Gain Rate [W] !TimeStep
48,1,ZN001:WALL003,Surface Outside Face Thermal Radiation to Sky Heat Transfer Coefficient [W/m2-K] !TimeStep
49,1,ZN001:WALL003,Surface Outside Face Thermal Radiation to Ground Heat Transfer Coefficient [W/m2-K] !TimeStep
50,1,ZN001:WALL003,Surface Outside Face Thermal Radiation to Air Heat Transfer Rate [W] !TimeStep
51,1,ZN001:WALL003,Surface Outside Face Solar Radiation Heat Gain Rate [W] !TimeStep
52,1,ZN001:WALL004,Surface Inside Face Temperature [C] !TimeStep
53,1,ZN001:WALL004,Surface Outside Face Temperature [C] !TimeStep
54,1,ZN001:WALL004,Surface Outside Face Outdoor Air Drybulb Temperature [C] !TimeStep
55,1,ZN001:WALL004,Surface Outside Face Convection Heat Transfer Coefficient [W/m2-K] !TimeStep
56,1,ZN001:WALL004,Surface Outside Face Net Thermal Radiation Heat Gain Rate [W] !TimeStep
57,1,ZN001:WALL004,Surface Outside Face Thermal Radiation to Sky Heat Transfer Coefficient [W/m2-K] !TimeStep
58,1,ZN001:WALL004,Surface Outside Face Thermal Radiation to Ground Heat Transfer Coefficient [W/m2-K] !TimeStep
59,1,ZN001:WALL004,Surface Outside Face Thermal Radiation to Air Heat Transfer Rate [W] !TimeStep
60,1,ZN001:WALL004,Surface Outside Face Solar Radiation Heat Gain Rate [W] !TimeStep
61,1,ZN001:FLR001,Surface Inside Face Temperature [C] !TimeStep
62,1,ZN001:FLR001,Surface Outside Face Temperature [C] !TimeStep
63,1,ZN001:ROOF001,Surface Inside Face Temperature [C] !TimeStep
64,1,ZN001:ROOF001,Surface Outside Face Temperature [C] !TimeStep
65,1,ZN001:ROOF001,Surface Outside Face Outdoor Air Drybulb Temperature [C] !TimeStep
66,1,ZN001:ROOF001,Surface Outside Face Convection Heat Transfer Coefficient [W/m2-K] !TimeStep
67,1,ZN001:ROOF001,Surface Outside Face Net Thermal Radiation Heat Gain Rate [W] !TimeStep
68,1,ZN001:ROOF001,Surface Outside Face Thermal Radiation to Sky Heat Transfer Coefficient [W/m2-K] !TimeStep
69,1,ZN001:ROOF001,Surface Outside Face Thermal Radiation to Ground Heat Transfer Coefficient [W/m2-K] !TimeStep
70,1,ZN001:ROOF001,Surface Outside Face Thermal Radiation to Air Heat Transfer Rate [W] !TimeStep
71,1,ZN001:ROOF001,Surface Outside Face Solar Radiation Heat Gain Rate [W] !TimeStep
72,1,ZN001:WALL001:WIN001,Surface Inside Face Temperature [C] !TimeStep
73,1,ZN001:WALL001:WIN001,Surface Outside Face Temperature [C] !TimeStep
74,1,ZN001:WALL001:WIN001,Surface Outside Face Outdoor Air Drybulb Temperature [C] !TimeStep
75,1,ZN001:WALL001:WIN001,Surface Outside Face Convection Heat Transfer Coefficient [W/m2-K] !TimeStep
76,1,ZN001:WALL001:WIN001,Surface Outside Face Net Thermal Radiation Heat Gain Rate [W] !TimeStep
77,1,ZN001:WALL001:WIN001,Surface Outside Face Thermal Radiation to Sky Heat Transfer Coefficient [W/m2-K] !TimeStep
78,1,ZN001:WALL001:WIN001,Surface Outside Face Thermal Radiation to Ground Heat Transfer Coefficient [W/m2-K] !TimeStep
79,1,ZN001:WALL001:WIN001,Surface Outside Face Thermal Radiation to Air Heat Transfer Rate [W] !TimeStep
80,1,ZONE ONE,Zone Mean Air Temperature [C] !TimeStep
81,1,ZONE ONE,Zone Air Heat Balance Internal Convective Heat Gain Rate [W] !TimeStep
82,1,ZONE ONE,Zone Air Heat Balance Surface Convection Rate [W] !TimeStep
83,1,ZONE ONE,Zone Air Heat Balance Interzone Air Transfer Rate [W] !TimeStep
84,1,ZONE ONE,Zone Air Heat Balance Outdoor Air Transfer Rate [W] !TimeStep
85,1,ZONE ONE,Zone Air Heat Balance System Air Transfer Rate [W] !TimeStep
86,1,ZONE ONE,Zone Air Heat Balance Air Energy Storage Rate [W] !TimeStep
End of Data Dictionary
1,RUN PERIOD 1,  55.95,  -3.37,   0.00,  41.10
2,1, 7, 1, 0, 1, 0.00,15.00,Saturday
7,11.524999999999999
8,6.247163656077078
9,0.0
10,0.0
11,19.07
12,0.0
13,0.0
14,0.0
15,0.0
16,0.0
17,0.0
18,0.0
19,0.0
20,0.0
21,0.0
22,0.0
23,0.0
24,-182.28717838330698
25,17.279827176524105
26,11.11900716727488
27,11.519891003043211
28,9.865688527885043
29,-391.10893675280795
30,1.6163444722717233
31,2.3504145647873926
32,-16.244921650663738
33,0.0
34,17.263853920869508
35,11.086953110065917
36,11.519891003043211
37,8.78464244742498
38,-452.5856346869853
39,1.61642463680108
40,2.350529346598543
41,-20.767861675859496
42,0.0
43,17.26385392086951
44,11.086953110065915
45,11.519891003043211
46,8.78464244742498
47,-452.58563468698475
48,1.61642463680108
49,2.350529346598543
50,-20.76786167585958
51,0.0
52,17.265923661546434
53,11.118611641162435
54,11.519891003043211
55,9.865526403831046
56,-462.83090908508404
57,1.6163410639783968
58,2.35040968469713
59,-19.24823435249197
60,0.0
61,18.241358430974877
62,18.28175581727985
63,17.513528628677623
64,10.093526179777424
65,11.50503201907577
66,11.49528820537246
67,-4079.328678207816
68,4.566343206807369
69,0.0
70,0.0
71,0.0
72,15.014073993578961
73,12.42710726405221
74,11.524999999999999
75,5.864734470295739
76,-117.11597081531565
77,1.5198278901150868
78,2.2098724999001873
79,-5.713016433708229
80,17.720062183839897
81,0.0
82,-64.4687472425486
83,0.0
84,0.0
85,0.0
86,-58.46174989299143
2,1, 7, 1, 0, 1,15.00,30.00,Saturday
7,11.95
8,1.7952572663021442
9,0.0
10,0.0
11,19.07
12,0.0
13,0.0
14,0.0
15,0.0
16,0.0
17,0.0
18,0.0
19,0.0
20,0.0
21,0.0
22,0.0
23,0.0
24,-187.53626953653603
25,17.219483095821563
26,11.000367047866984
27,11.944891003043212
28,9.44835307862422
29,-685.0223810988534
30,1.5779129269486314
31,2.3545791303386143
32,-38.34253949896994
33,0.0
34,17.200926690459166
35,10.931986855884455
36,11.944891003043212
37,8.47820899751913
38,-788.7083467728706
39,1.577638645947251
40,2.3541818708925955
41,-48.664119038760575
42,0.0
43,17.200926690459163
44,10.931986855884455
45,11.944891003043212
46,8.47820899751913
47,-788.7083467728706
48,1.577638645947251
49,2.3541818708925955
50,-48.664119038760575
51,0.0
52,17.205178458428332
53,10.999955487352329
54,11.944891003043212
55,9.44828711236006
56,-810.7346328630102
57,1.5779095422456153
58,2.3545742280531887
59,-45.406190208241235
60,0.0
61,18.19971092051677
62,18.241358430974877
63,17.436391726730548
64,9.115404088709603
65,11.930032019075771
66,11.008361199925366
67,-7545.73602944371
68,4.438251232909492
69,0.0
70,0.0
71,0.0
72,14.884713309717029
73,12.221314374026576
74,11.95
75,5.643077248606132
76,-158.86307846859233
77,1.4831990317398547
78,2.212845188085944
79,-1.7202035712495127
80,17.67111391818653
81,0.0
82,-77.72391161564454
83,0.0
84,0.0
85,0.0
86,-70.23080733407475
2,1, 7, 1, 0, 1,30.00,45.00,Saturday
7,12.375000000000002
8,-2.884055518863761
9,0.0
10,0.0
11,19.07
12,0.0
13,0.0
14,0.0
15,0.0
16,0.0
17,0.0
18,0.0
19,0.0
20,0.0
21,0.0
22,0.0
23,0.0
24,-193.38314136002597
25,17.152047441870202
26,10.856529268485707
27,12.369891003043215
28,9.096049767045276
29,-971.7767070789134
30,1.538182576714043
31,2.3583906570238167
32,-61.53371001427076
33,0.0
34,17.13128264955622
35,10.758443707658346
36,12.369891003043215
37,8.23996836974881
38,-1118.5256451798077
39,1.5376042672929529
40,2.357542891100795
41,-77.53114791086848
42,0.0
43,17.131282649556166
44,10.758443707658344
45,12.369891003043215
46,8.23996836974881
47,-1118.5256451798068
48,1.5376042672929529
49,2.357542891100795
50,-77.53114791086857
51,0.0
52,17.137309962929404
53,10.856097070565601
54,12.369891003043215
55,9.096010842751014
56,-1150.1625698162668
57,1.5381790954710493
58,2.3583855537548413
59,-72.85880966726569
60,0.0
61,18.156370692400962
62,18.19971092051677
63,17.352229615430186
64,8.064808740048514
65,12.355032019075773
66,10.596918046165928
67,-10949.320059710337
68,4.305743407154578
69,0.0
70,0.0
71,0.0
72,14.742627283089973
73,11.992827008324355
74,12.375000000000002
75,5.434279798053997
76,-199.59467812467926
77,1.4453043452930912
78,2.215394758004234
79,2.4255814519612913
80,17.61410039959936
81,0.0
82,-87.52400941238469
83,0.0
84,0.0
85,0.0
86,-81.81701941960105
2,1, 7, 1, 0, 1,45.00,60.00,Saturday
7,12.8
8,-7.819875967085466
9,0.0
10,0.0
11,19.07
12,0.0
13,0.0
14,0.0
15,0.0
16,0.0
17,0.0
18,0.0
19,0.0
20,0.0
21,0.0
22,0.0
23,0.0
24,-199.37165115380654
25,17.077807231969516
26,10.68796664126502
27,12.794891003043213
28,8.771108616158948
29,-1251.5404243700116
30,1.4970800762569285
31,2.361898017679436
32,-85.79553617537515
33,0.0
34,17.05528334025307
35,10.567529787804377
36,12.794891003043213
37,8.027162132607323
38,-1442.469083654193
39,1.4962608092621794
40,2.3606816614258035
41,-107.30713133354311
42,0.0
43,17.05528334025307
44,10.567529787804386
45,12.794891003043213
46,8.027162132607323
47,-1442.469083654196
48,1.4962608092621794
49,2.3606816614258035
50,-107.30713133354269
51,0.0
52,17.0626323318589
53,10.687512413046813
54,12.794891003043213
55,8.771083332155175
56,-1481.31523817407
57,1.4970764654407196
58,2.3618926567800367
59,-101.57883438136484
60,0.0
61,18.111057152006577
62,18.156370692400962
63,17.261229940034013
64,6.938142466584972
65,12.780032019075772
66,10.21172248941351
67,-14289.42945174254
68,4.168856116171591
69,0.0
70,0.0
71,0.0
72,14.592440436032348
73,11.753303812914282
74,12.8
75,5.367911397233144
76,-239.82061333693343
77,1.4061594293895077
78,2.2176875494938773
79,6.649686469939612
80,17.550419260876488
81,0.0
82,-95.49884448160977
83,0.0
84,0.0
85,0.0
86,-91.4033399526227
2,1, 7, 1, 0, 2, 0.00,15.00,Saturday
7,12.725000000000001
8,-7.525293383948849
9,0.0
10,0.0
11,19.07
12,0.0
13,0.0
14,0.0
15,0.0
16,0.0
17,0.0
18,0.0
19,0.0
20,0.0
21,0.0
22,0.0
23,0.0
24,-198.50676070603708
25,17.027165669876943
26,10.625726241508005
27,12.719891003043214
28,8.597004050833975
29,-1223.882171785225
30,1.4980251459103966
31,2.3588740391658445
32,-85.16677544051002
33,0.0
34,17.005341156740847
35,10.515507375639045
36,12.719891003043214
37,7.915393248277571
38,-1412.8300678460655
39,1.4970193573468977
40,2.3573820242693255
41,-106.05170372721402
42,0.0
43,17.005341156740847
44,10.515507375639045
45,12.719891003043214
46,7.915393248277571
47,-1412.8300678460655
48,1.4970193573468977
49,2.3573820242693255
50,-106.05170372721402
51,0.0
52,17.011967450410545
53,10.625244537800606
54,12.719891003043214
55,8.596980139909215
56,-1448.56713356627
57,1.4980213514753344
58,2.358868410442571
59,-100.83584759289857
60,0.0
61,18.066699054247806
62,18.111057152006577
63,17.213091027993023
64,6.899714342140228
65,12.705032019075773
66,9.984602828957392
67,-13901.321361824404
68,4.149254701387661
69,0.0
70,0.0
71,0.0
72,14.535704477093532
73,11.702083568945
74,12.725000000000001
75,5.291982841841496
76,-236.08997038061372
77,1.4064842757845384
78,2.214027458617436
79,6.494302393476165
80,17.488001900465605
81,0.0
82,-84.88771461668763
83,0.0
84,0.0
85,0.0
86,-89.60864339175082
2,1, 7, 1, 0, 2,15.00,30.00,Saturday
7,12.65
8,-7.23168764496387
9,0.0
10,0.0
11,19.07
12,0.0
13,0.0
14,0.0
15,0.0
16,0.0
17,0.0
18,0.0
19,0.0
20,0.0
21,0.0
22,0.0
23,0.0
24,-197.9765479193238
25,16.973879476077688
26,10.563515328107178
27,12.644891003043213
28,8.428711464208861
29,-1196.988025230861
30,1.4998532578506791
31,2.3571693580170088
32,-84.58548965734555
33,0.0
34,16.952661268957577
35,10.462955885036248
36,12.644891003043213
37,7.808674106669991
38,-1384.159573480656
39,1.498932413585128
40,2.355804532833542
41,-104.90147406652189
42,0.0
43,16.952661268957577
44,10.462955885036248
45,12.644891003043213
46,7.808674106669991
47,-1384.159573480656
48,1.498932413585128
49,2.355804532833542
50,-104.90147406652189
51,0.0
52,16.9587184090696
53,10.563022879679222
54,12.644891003043213
55,8.42868698870897
56,-1416.7286932506172
57,1.4998492323010046
58,2.357163391612249
59,-100.14826011406808
60,0.0
61,18.02179692287287
62,18.066699054247806
63,17.161042103778158
64,6.846688019262792
65,12.630032019075772
66,9.788003032184763
67,-13585.87333504629
68,4.15494307010983
69,0.0
70,0.0
71,0.0
72,14.489932996957577
73,11.66195697036244
74,12.65
75,5.195085428991093
76,-232.83697873655
77,1.4082802094638598
78,2.2125586654275624
79,6.269101114865812
80,17.431324924579037
81,0.0
82,-75.10472489975015
83,0.0
84,0.0
85,0.0
86,-81.38340809284955
2,1, 7, 1, 0, 2,30.00,45.00,Saturday
7,12.575
8,-6.9390512251527525
9,0.0
10,0.0
11,19.07
12,0.0
13,0.0
14,0.0
15,0.0
16,0.0
17,0.0
18,0.0
19,0.0
20,0.0
21,0.0
22,0.0
23,0.0
24,-197.45762182037373
25,16.92313546802032
26,10.501848078995593
27,12.569891003043212
28,8.26023706807233
29,-1170.2401399542914
30,1.501676644475787
31,2.355465865581171
32,-83.98291988056793
33,0.0
34,16.90252565226367
35,10.410933833972454
36,12.569891003043212
37,7.701119270254688
38,-1355.6493033428426
39,1.5008361505394994
40,2.3542212055920864
41,-103.72699570930267
42,0.0
43,16.90252565226367
44,10.410933833972454
45,12.569891003043212
46,7.701119270254688
47,-1355.6493033428426
48,1.5008361505394994
49,2.3542212055920864
50,-103.72699570930267
51,0.0
52,16.908001372736223
53,10.501350655599575
54,12.569891003043212
55,8.260212992508839
56,-1385.065353734925
57,1.5016725275098801
58,2.355459768942668
59,-99.43520944008188
60,0.0
61,17.97671184744265
62,18.02179692287287
63,17.111435779073812
64,6.794584405372078
65,12.555032019075771
66,9.590712355681466
67,-13270.21358640967
68,4.160279014166894
69,0.0
70,0.0
71,0.0
72,14.444453023088158
73,11.622708311903182
74,12.575
75,5.096673798261359
76,-229.6208803492594
77,1.4101585773414198
78,2.2112193746539983
79,6.038630087013528
80,17.379837972109954
81,0.0
82,-70.4681714645939
83,0.0
84,0.0
85,0.0
86,-73.94406939132423
2,1, 7, 1, 0, 2,45.00,60.00,Saturday
7,12.5
8,-6.6473766902308284
9,0.0
10,0.0
11,19.07
12,0.0
13,0.0
14,0.0
15,0.0
16,0.0
17,0.0
18,0.0
19,0.0
20,0.0
21,0.0
22,0.0
23,0.0
24,-197.001070680253
25,16.874250525028067
26,10.440520941786396
27,12.494891003043213
28,8.091608518087673
29,-1143.587317536983
30,1.5034996386507424
31,2.35376992384239
32,-83.36759878379233
33,0.0
34,16.854254299534087
35,10.359190386118103
36,12.494891003043213
37,7.592745956695662
38,-1327.228049561498
39,1.5027394431252283
40,2.352645143712679
41,-102.54094249205768
42,0.0
43,16.854254299534087
44,10.359190386118103
45,12.494891003043213
46,7.592745956695662
47,-1327.228049561498
48,1.5027394431252283
49,2.352645143712679
50,-102.54094249205768
51,0.0
52,16.859149655004607
53,10.44001848229991
54,12.494891003043213
55,8.091585193140997
56,-1353.5145695303704
57,1.503495478450488
58,2.353763768475699
59,-98.7070706611197
60,0.0
61,17.931599023845013
62,17.97671184744265
63,17.06357874530502
64,6.74297815832137
65,12.480032019075772
66,9.39312105401431
67,-12955.135511286986
68,4.1656227831753245
69,0.0
70,0.0
71,0.0
72,14.400873484658689
73,11.584710234241868
74,12.5
75,4.997838150955782
76,-226.45767719125266
77,1.4120393621648715
78,2.2098908340510577
79,5.800545805431704
80,17.3314063778585
81,0.0
82,-68.38395873922556
83,0.0
84,0.0
85,0.0
86,-69.56764943472264
2,1, 7, 1, 0, 3, 0.00,15.00,Saturday
7,12.45
8,-6.705635000260486
9,0.0
10,0.0
11,19.07
12,0.0
13,0.0
14,0.0
15,0.0
16,0.0
17,0.0
18,0.0
19,0.0
20,0.0
21,0.0
22,0.0
23,0.0
24,-197.41185085260068
25,16.821071004350575
26,10.34490386966291
27,12.444891003043212
28,7.808735179174764
29,-1131.3468857217133
30,1.5025195300618719
31,2.3523896803927613
32,-85.1687955630207
33,0.0
34,16.801928471673357
35,10.27726888806643
36,12.444891003043212
37,7.408854106849519
38,-1317.1670667059946
39,1.5018397496379234
40,2.3513838532475293
41,-104.01778713140807
42,0.0
43,16.801928471673357
44,10.27726888806643
45,12.444891003043212
46,7.408854106849519
47,-1317.1670667059946
48,1.5018397496379234
49,2.3513838532475293
50,-104.01778713140807
51,0.0
52,16.805974166703823
53,10.344394382177402
54,12.444891003043212
55,7.80871401368803
56,-1339.023299814018
57,1.5025153295656353
58,2.3523834652237587
59,-100.83948311078812
60,0.0
61,17.88602685508431
62,17.931599023845013
63,17.010175333803595
64,6.551080008502246
65,12.430032019075771
66,9.062156517946468
67,-12818.115644145399
68,4.163114268154844
69,0.0
70,0.0
71,0.0
72,14.346614509317533
73,11.524051221016293
74,12.45
75,4.838309014738232
76,-225.9783492846784
77,1.4113038146743833
78,2.2088681038469913
79,5.864681756518061
80,17.28338403172234
81,0.0
82,-69.95284377225208
83,0.0
84,0.0
85,0.0
86,-68.99120677074595
2,1, 7, 1, 0, 3,15.00,30.00,Saturday
7,12.4
8,-6.763931550078951
9,0.0
10,0.0
11,19.07
12,0.0
13,0.0
14,0.0
15,0.0
16,0.0
17,0.0
18,0.0
19,0.0
20,0.0
21,0.0
22,0.0
23,0.0
24,-197.78628056861285
25,16.768076051560747
26,10.247403253289864
27,12.394891003043213
28,7.524440400302079
29,-1118.4027907849197
30,1.5012530293409159
31,2.350586034817827
32,-87.0284909311597
33,0.0
34,16.749811349005057
35,10.194181448652728
36,12.394891003043213
37,7.221788130356998
38,-1306.5277319072452
39,1.5006880400306484
40,2.3497500291418523
41,-105.53217723470833
42,0.0
43,16.749811349005057
44,10.194181448652728
45,12.394891003043213
46,7.221788130356998
47,-1306.5277319072452
48,1.5006880400306484
49,2.3497500291418523
50,-105.53217723470833
51,0.0
52,16.752975755458273
53,10.246883071068844
54,12.394891003043213
55,7.524422085775615
56,-1323.6979566588066
57,1.5012487726444457
58,2.3505797362803236
59,-103.04131066908262
60,0.0
61,17.840184000373636
62,17.88602685508431
63,16.95696005862151
64,6.353619573968884
65,12.380032019075772
66,8.727306836425164
67,-12665.993965980837
68,4.157349892495268
69,0.0
70,0.0
71,0.0
72,14.290800077683343
73,11.461825381828476
74,12.4
75,4.681265195202343
76,-225.43256187083205
77,1.4103905173133444
78,2.2075827564516297
79,5.9386095690375225
80,17.23439721261072
81,0.0
82,-71.72747021661955
83,0.0
84,0.0
85,0.0
86,-70.3886872460714
2,1, 7, 1, 0, 3,30.00,45.00,Saturday
7,12.350000000000001
8,-6.822266398304009
9,0.0
10,0.0
11,19.07
12,0.0
13,0.0
14,0.0
15,0.0
16,0.0
17,0.0
18,0.0
19,0.0
20,0.0
21,0.0
22,0.0
23,0.0
24,-198.16114664194473
25,16.71416914117855
26,10.147639598569606
27,12.344891003043214
28,7.2403854617323224
29,-1104.8650711742973
30,1.499971216926106
31,2.3487600702483706
32,-88.97602753191605
33,0.0
34,16.696831239479067
35,10.109566079313774
36,12.344891003043214
37,7.032533818733931
38,-1295.4148738446129
39,1.49952688339517
40,2.3481025751544347
41,-107.11695804359726
42,0.0
43,16.696831239479067
44,10.109566079313774
45,12.344891003043214
46,7.032533818733931
47,-1295.4148738446129
48,1.49952688339517
49,2.3481025751544347
50,-107.11695804359726
51,0.0
52,16.699069118325895
53,10.147107648210547
54,12.344891003043214
55,7.240370087374696
56,-1307.6695766649414
57,1.4999668735222544
58,2.3487536431921296
59,-105.34716485353178
60,0.0
61,17.793994610054213
62,17.840184000373636
63,16.902794027989298
64,6.148073227275659
65,12.330032019075773
66,8.391915562648459
67,-12506.111583349493
68,4.151461523152939
69,0.0
70,0.0
71,0.0
72,14.234650941075415
73,11.399158091845436
74,12.350000000000001
75,4.524213836761693
76,-224.86881782475584
77,1.4094650446605363
78,2.206279737819502
79,6.015226140704492
80,17.184285626179435
81,0.0
82,-72.88971332495274
83,0.0
84,0.0
85,0.0
86,-72.01728255452078
2,1, 7, 1, 0, 3,45.00,60.00,Saturday
7,12.3
8,-6.880639603694988
9,0.0
10,0.0
11,19.07
12,0.0
13,0.0
14,0.0
15,0.0
16,0.0
17,0.0
18,0.0
19,0.0
20,0.0
21,0.0
22,0.0
23,0.0
24,-198.5246085831038
25,16.659350693004033
26,10.045530862298502
27,12.294891003043213
28,6.956702830725231
29,-1090.7113234557983
30,1.49867095461851
31,2.3469071404837254
32,-91.01427367235546
33,0.0
34,16.642986657497026
35,10.023365915445064
36,12.294891003043213
37,6.841007127750165
38,-1283.809135982869
39,1.4983532752095055
40,2.3464370439082387
41,-108.77446342025603
42,0.0
43,16.642986657497026
44,10.023365915445064
45,12.294891003043213
46,6.841007127750165
47,-1283.809135982869
48,1.4983532752095055
49,2.3464370439082387
50,-108.77446342025603
51,0.0
52,16.644251893431072
53,10.04498672210984
54,12.294891003043213
55,6.956690635715275
56,-1290.9118678837106
57,1.4986665157069232
58,2.34690057187462
59,-107.76041081884007
60,0.0
61,17.747420480212853
62,17.793994610054213
63,16.84766739676038
64,5.933860130439663
65,12.280032019075772
66,8.05600736639997
67,-12337.782438591707
68,4.145391163608264
69,0.0
70,0.0
71,0.0
72,14.177800631053003
73,11.33590732918924
74,12.3
75,4.367049036471859
76,-224.28105389861506
77,1.408536230452816
78,2.2049721164157874
79,6.095419392922146
80,17.13328992173148
81,0.0
82,-73.80790029984607
83,0.0
84,0.0
85,0.0
86,-73.30075735678854
2,1, 7, 1, 0, 4, 0.00,15.00,Saturday
7,12.275000000000002
8,-5.951238527387829
9,0.0
10,0.0
11,19.07
12,0.0
13,0.0
14,0.0
15,0.0
16,0.0
17,0.0
18,0.0
19,0.0
20,0.0
21,0.0
22,0.0
23,0.0
24,-194.14495087277194
25,16.63320280789908
26,10.152078006738547
27,12.269891003043215
28,7.067761762095326
29,-1048.1315755801556
30,1.5052757680158342
31,2.34533641560556
32,-85.63422312464678
33,0.0
34,16.61663196367779
35,10.124617034248542
36,12.269891003043215
37,6.916349646920645
38,-1231.8487665215548
39,1.505090502497091
40,2.345062880316736
41,-102.66862857996618
42,0.0
43,16.61663196367779
44,10.124617034248542
45,12.269891003043215
46,6.916349646920645
47,-1231.8487665215548
48,1.505090502497091
49,2.345062880316736
50,-102.66862857996618
51,0.0
52,16.61829533131964
53,10.15152248212654
54,12.269891003043215
55,7.067749293155411
56,-1240.5060360099337
57,1.5052712195876918
58,2.345329700087771
59,-101.39252137817834
60,0.0
61,17.702719404278266
62,17.747420480212853
63,16.82155514518798
64,6.276083428412513
65,12.255032019075774
66,8.185813178018488
67,-11817.661583604187
68,4.161311890885963
69,0.0
70,0.0
71,0.0
72,14.188357392403987
73,11.40639441629719
74,12.275000000000002
75,4.4356836135752875
76,-216.37749444047066
77,1.4150224957692468
78,2.2039485923546875
79,5.493019920165455
80,17.086585699215338
81,0.0
82,-61.568318313998105
83,0.0
84,0.0
85,0.0
86,-67.14318988278698
2,1, 7, 1, 0, 4,15.00,30.00,Saturday
7,12.25
8,-5.031435730263695
9,0.0
10,0.0
11,19.07
12,0.0
13,0.0
14,0.0
15,0.0
16,0.0
17,0.0
18,0.0
19,0.0
20,0.0
21,0.0
22,0.0
23,0.0
24,-190.171350525326
25,16.605258803302153
26,10.253852914414995
27,12.244891003043213
28,7.184025362042673
29,-1005.5981444822953
30,1.5135815062633275
31,2.346341488878592
32,-80.54255353581935
33,0.0
34,16.58867627433717
35,10.222043560762113
36,12.244891003043213
37,6.995301989513367
38,-1180.0772170512157
39,1.513351356856147
40,2.3460024505510035
41,-96.8483213668794
42,0.0
43,16.58867627433717
44,10.222043560762113
45,12.244891003043213
46,6.995301989513367
47,-1180.0772170512157
48,1.513351356856147
49,2.3460024505510035
50,-96.8483213668794
51,0.0
52,16.590604231154988
53,10.253308937162132
54,12.244891003043213
55,7.184009427503601
56,-1190.1621011597992
57,1.5135768501303823
58,2.346334629834389
59,-95.3649230834872
60,0.0
61,17.658625541972555
62,17.702719404278266
63,16.793714178728806
64,6.600967671428559
65,12.230032019075772
66,8.32580634067973
67,-11320.243625798981
68,4.190022786372867
69,0.0
70,0.0
71,0.0
72,14.207339801070134
73,11.482535425386857
74,12.25
75,4.48650256903765
76,-208.71922651102292
77,1.4225179271261472
78,2.2044751987439524
79,4.854713089598413
80,17.046511258924912
81,0.0
82,-51.72606680042209
83,0.0
84,0.0
85,0.0
86,-57.62014342842419
2,1, 7, 1, 0, 4,30.00,45.00,Saturday
7,12.224999999999998
8,-4.121003057659834
9,7.5
10,6.5
11,19.07
12,0.0
13,0.0
14,24.92085313058223
15,0.0
16,4.073093485299696
17,9.396308110315223
18,9.13734904152389
19,4.073093485299696
20,7.540058642658336
21,0.0
22,4.073093485299696
23,24.92085313058223
24,-158.9344117896514
25,16.623593784879674
26,10.605146311399501
27,12.21989100304321
28,7.301167878176367
29,-1029.990068841577
30,1.5218086373990762
31,2.347288153485249
32,-65.34688327128178
33,179.81707581346654
34,16.631961496582186
35,10.909498210065617
36,12.21989100304321
37,7.07455705655793
38,-1315.606934940602
39,1.5215413397828783
40,2.346895268748813
41,-62.76184628081834
42,491.03189337652844
43,16.63091100539072
44,10.893225304449201
45,12.21989100304321
46,7.07455705655793
47,-1310.4413030646576
48,1.5215413397828783
49,2.346895268748813
50,-63.54124434093668
51,477.4992207179938
52,16.612219443571668
53,10.605117462845827
54,12.21989100304321
55,7.301148924098701
56,-1219.1983104190108
57,1.5218040659529481
58,2.347281434202739
59,-77.35302350983441
60,212.85155643105207
61,17.619557012827517
62,17.658625541972555
63,16.811778177280534
64,7.35955423604808
65,12.20503201907577
66,8.466162104087058
67,-11247.758681639527
68,4.2182574849146395
69,0.0
70,0.0
71,1313.4269431523119
72,14.265563829582504
73,11.596789246607841
74,12.224999999999998
75,4.536330150468677
76,-202.7046596988232
77,1.430020388605116
78,2.205067571428362
79,3.975706555831768
80,17.019644655537324
81,0.0
82,-25.98161243010986
83,0.0
84,0.0
85,0.0
86,-38.633221120932504
2,1, 7, 1, 0, 4,45.00,60.00,Saturday
7,12.2
8,-3.2197207632237905
9,15.0
10,13.0
11,19.07
12,0.0
13,0.0
14,48.909763459290204
15,0.0
16,7.993869145238598
17,23.346886110278934
18,21.101975969763977
19,7.993869145238598
20,15.433859793144132
21,0.0
22,7.993869145238598
23,48.909763459290204
24,-129.4464832836764
25,16.648067507493355
26,10.937593651602688
27,12.194891003043212
28,7.43111640041258
29,-1051.0787723030621
30,1.53210153806504
31,2.3513204931992133
32,-50.968803189940175
33,352.9096936567206
34,16.69895481748952
35,11.861051425974281
36,12.194891003043212
37,7.183367754464606
38,-1540.94714702351
39,1.5346709067359385
40,2.355088559062476
41,-16.045216066975573
42,1220.060640475512
43,16.689936499825233
44,11.721737522371566
45,12.194891003043212
46,7.182284524772152
47,-1496.358947270646
48,1.5345334343922368
49,2.3548869543513598
50,-22.73906528725422
51,1102.746216148887
52,16.639788915070802
53,10.937647362789905
54,12.194891003043212
55,7.431114867267334
56,-1244.1910344536375
57,1.532101294700373
58,2.351320136290909
59,-60.32977645299465
60,417.74329403711283
61,17.5841357244845
62,17.619557012827517
63,16.83706952377567
64,8.113290932236225
65,12.180032019075771
66,8.617978233101054
67,-11204.121914654748
68,4.256597198626386
69,0.0
70,0.0
71,2688.4734257191144
72,14.340062217280547
73,11.716923974079464
74,12.2
75,4.580244802697174
76,-196.94944638570817
77,1.4377877613071104
78,2.206102292625181
79,3.0587333312015432
80,17.00876376516372
81,0.0
82,-2.821401368955229