Program Version,EnergyPlus, Version 23.2.0-7636e6b3e9, YMD=2026.07.21 16:01
1,5,Environment Title[],Latitude[deg],Longitude[deg],Time Zone[],Elevation[m]
2,8,Day of Simulation[],Month[],Day of Month[],DST Indicator[1=yes 0=no],Hour[],StartMinute[],EndMinute[],DayType
3,5,Cumulative Day of Simulation[],Month[],Day of Month[],DST Indicator[1=yes 0=no],DayType  ! When Daily Report Variables Requested
4,2,Cumulative Days of Simulation[],Month[]  ! When Monthly Report Variables Requested
5,1,Cumulative Days of Simulation[] ! When Run Period Report Variables Requested
6,1,Calendar Year of Simulation[] ! When Annual Report Variables Requested
7,1,Environment,Site Outdoor Air Drybulb Temperature [C] !TimeStep
450,1,WALL-1PF,Surface Outside Face Temperature [C] !TimeStep
451,1,WALL-1PR,Surface Outside Face Temperature [C] !TimeStep
452,1,WALL-1PB,Surface Outside Face Temperature [C] !TimeStep
453,1,WALL-1PL,Surface Outside Face Temperature [C] !TimeStep
454,1,C1-1P,Surface Outside Face Temperature [C] !TimeStep
455,1,C2-1P,Surface Outside Face Temperature [C] !TimeStep
456,1,C3-1P,Surface Outside Face Temperature [C] !TimeStep
457,1,C4-1P,Surface Outside Face Temperature [C] !TimeStep
458,1,C5-1P,Surface Outside Face Temperature [C] !TimeStep
459,1,TOP-1,Surface Outside Face Temperature [C] !TimeStep
460,1,FRONT-1,Surface Outside Face Temperature [C] !TimeStep
461,1,SB12,Surface Outside Face Temperature [C] !TimeStep
462,1,SB14,Surface Outside Face Temperature [C] !TimeStep
463,1,SB15,Surface Outside Face Temperature [C] !TimeStep
464,1,F1-1,Surface Outside Face Temperature [C] !TimeStep
465,1,C1-1,Surface Outside Face Temperature [C] !TimeStep
466,1,WF-1,Surface Outside Face Temperature [C] !TimeStep
467,1,DF-1,Surface Outside Face Temperature [C] !TimeStep
468,1,RIGHT-1,Surface Outside Face Temperature [C] !TimeStep
469,1,SB21,Surface Outside Face Temperature [C] !TimeStep
470,1,SB23,Surface Outside Face Temperature [C] !TimeStep
471,1,SB25,Surface Outside Face Temperature [C] !TimeStep
472,1,F2-1,Surface Outside Face Temperature [C] !TimeStep
473,1,C2-1,Surface Outside Face Temperature [C] !TimeStep
474,1,WR-1,Surface Outside Face Temperature [C] !TimeStep
475,1,BACK-1,Surface Outside Face Temperature [C] !TimeStep
476,1,SB32,Surface Outside Face Temperature [C] !TimeStep
477,1,SB34,Surface Outside Face Temperature [C] !TimeStep
478,1,SB35,Surface Outside Face Temperature [C] !TimeStep
479,1,F3-1,Surface Outside Face Temperature [C] !TimeStep
480,1,C3-1,Surface Outside Face Temperature [C] !TimeStep
481,1,WB-1,Surface Outside Face Temperature [C] !TimeStep
482,1,DB-1,Surface Outside Face Temperature [C] !TimeStep
483,1,LEFT-1,Surface Outside Face Temperature [C] !TimeStep
484,1,SB41,Surface Outside Face Temperature [C] !TimeStep
485,1,SB43,Surface Outside Face Temperature [C] !TimeStep
486,1,SB45,Surface Outside Face Temperature [C] !TimeStep
487,1,F4-1,Surface Outside Face Temperature [C] !TimeStep
488,1,C4-1,Surface Outside Face Temperature [C] !TimeStep
489,1,WL-1,Surface Outside Face Temperature [C] !TimeStep
490,1,SB51,Surface Outside Face Temperature [C] !TimeStep
491,1,SB52,Surface Outside Face Temperature [C] !TimeStep
492,1,SB53,Surface Outside Face Temperature [C] !TimeStep
493,1,SB54,Surface Outside Face Temperature [C] !TimeStep
494,1,F5-1,Surface Outside Face Temperature [C] !TimeStep
495,1,C5-1,Surface Outside Face Temperature [C] !TimeStep
496,1,PLENUM-1,Zone Mean Air Temperature [C] !TimeStep
497,1,SPACE1-1,Zone Mean Air Temperature [C] !TimeStep
498,1,SPACE2-1,Zone Mean Air Temperature [C] !TimeStep
499,1,SPACE3-1,Zone Mean Air Temperature [C] !TimeStep
500,1,SPACE4-1,Zone Mean Air Temperature [C] !TimeStep
501,1,SPACE5-1,Zone Mean Air Temperature [C] !TimeStep
946,1,TRANSFORMER 1,Transformer Efficiency [] !TimeStep
947,1,TRANSFORMER 1,Transformer Input Electricity Rate [W] !TimeStep
948,1,TRANSFORMER 1,Transformer Input Electricity Energy [J] !TimeStep
949,1,TRANSFORMER 1,Transformer Output Electricity Rate [W] !TimeStep
950,1,TRANSFORMER 1,Transformer Output Electricity Energy [J] !TimeStep
951,1,TRANSFORMER 1,Transformer No Load Loss Rate [W] !TimeStep
952,1,TRANSFORMER 1,Transformer No Load Loss Energy [J] !TimeStep
953,1,TRANSFORMER 1,Transformer Load Loss Rate [W] !TimeStep
954,1,TRANSFORMER 1,Transformer Load Loss Energy [J] !TimeStep
955,1,TRANSFORMER 1,Transformer Thermal Loss Rate [W] !TimeStep
956,1,TRANSFORMER 1,Transformer Thermal Loss Energy [J] !TimeStep
957,1,TRANSFORMER 1,Transformer Distribution Electricity Loss Energy [J] !TimeStep
End of Data Dictionary
1,WINTERDAY,  55.95,  -3.37,   0.00,  41.10
2,1, 1,14, 0, 1, 0.00,15.00,Tuesday
7,3.5
450,3.1193365663254347
451,3.1193323456165243
452,3.11933231790453
453,3.119332412569053
454,17.937901136535338
455,18.225085349924928
456,17.968006055082864
457,18.215564378004576
458,19.369426246990084
459,3.113268081636022
460,3.129099644705025
461,18.311068379991692
462,18.30161890096842
463,19.34987990012954
464,20.03
465,17.76748462219512
466,3.1494294396744635
467,3.212972008953443
468,3.129210385771075
469,18.119752274860122
470,18.145170291101024
471,19.416079723443552
472,20.03
473,17.839535944923384
474,3.144932219125053
475,3.129099008447974
476,18.316559144572913
477,18.307109808889532
478,19.35523425364579
479,20.03
480,17.77503626543403
481,3.1441099593660624
482,3.2101053592124345
483,3.129204119995111
484,18.116806772977256
485,18.142225458059194
486,19.413156130760807
487,20.03
488,17.837147328382486
489,3.1448954841899877
490,18.352777641443065
491,18.62430016938294
492,18.3780627149214
493,18.614883037371204
494,20.03
495,18.07483253869968
496,17.85288678344198
497,17.941716236519447
498,18.280112656701387
499,17.97447323619312
500,18.2685641411161
501,19.476794140868122
946,0.9218578895654046
947,515.2638008271874
948,463737.4207444687
949,475.0
950,427500.0
951,39.97461928934014
952,35977.15736040613
953,0.28918153784726547
954,260.26338406253893
955,40.263800827187424
956,36237.42074446868
957,36237.42074446866
2,1, 1,14, 0, 1,15.00,30.00,Tuesday
7,3.5999999999999996
450,3.5982818476541585
451,3.5981415471370597
452,3.5981473499307097
453,3.5981436668078404
454,17.957111750758386
455,18.195309762692577
456,17.97601022920342
457,18.186907244458077
458,19.32666359042799
459,3.3368662898008776
460,3.6103268777872257
461,18.27344484364502
462,18.265034526917756
463,19.309995401874634
464,20.03
465,17.680479974209103
466,5.789219148720235
467,8.029534746556806
468,3.615668186340324
469,18.109382050324694
470,18.129206415135865
471,19.373304421079798
472,20.03
473,17.74044820859631
474,5.266919740256412
475,3.6104406288799016
476,18.27919032039834
477,18.27078013465068
478,19.31559972876571
479,20.03
480,17.68527551721887
481,5.223059501451985
482,7.774368983876684
483,3.615383948544786
484,18.106733150867825
485,18.126558081628616
486,19.37067693868912
487,20.03
488,17.738337307542324
489,5.265102083246916
490,18.349360629135163
491,18.588113303166214
492,18.36854529330513
493,18.579733903873976
494,20.03
495,17.966479641349277
496,17.742377125022358
497,17.995073859544046
498,18.26546499113441
499,18.011979342748592
500,18.25557018005719
501,19.445775620942026
946,0.9218578895654046
947,515.2638008271874
948,463737.4207444687
949,475.0
950,427500.0
951,39.97461928934014
952,35977.15736040613
953,0.28918153784726547
954,260.26338406253893
955,40.263800827187424
956,36237.42074446868
957,36237.42074446866
2,1, 1,14, 0, 1,30.00,45.00,Tuesday
7,3.6999999999999997
450,3.795136932463969
451,3.7949952853369644
452,3.7950076874364145
453,3.794997322273507
454,17.964141355558695
455,18.15944027226736
456,17.97105463689935
457,18.152143486300904
458,19.28582489893373
459,3.510807647070288
460,3.8123730160713354
461,18.242204283094487
462,18.234786506153007
463,19.27789596599323
464,20.03
465,17.597721841578107
466,5.7401387811975155
467,7.9281081353371405
468,3.819192814957621
469,18.104956123281422
470,18.117041723335984
471,19.33586327560144
472,20.03
473,17.646850397388512
474,4.983165621814692
475,3.8126253794224745
476,18.247389536463157
477,18.239971864324783
478,19.282888245021272
479,20.03
480,17.599487246263337
481,4.9462337557745855
482,7.5671868706712075
483,3.8188469578979656
484,18.102587208046383
485,18.114673250470695
486,19.33351446455529
487,20.03
488,17.645015901603752
489,4.981538101456124
490,18.347944965489503
491,18.553870988289766
492,18.35907942151307
493,18.54648168697281
494,20.03
495,17.866407836240644
496,17.644442609952527
497,18.0254498259067
498,18.240234164593137
499,18.02748241134671
500,18.231844854600133
501,19.41753162075273
946,0.9218578895654046
947,515.2638008271874
948,463737.4207444687
949,475.0
950,427500.0
951,39.97461928934014
952,35977.15736040613
953,0.28918153784726547
954,260.26338406253893
955,40.263800827187424
956,36237.42074446868
957,36237.42074446866
2,1, 1,14, 0, 1,45.00,60.00,Tuesday
7,3.8
450,3.9412197087960843
451,3.9410931851252853
452,3.9411114223922907
453,3.9410948917875133
454,17.96207725912716
455,18.125275622390323
456,17.956980121471847
457,18.119091406226783
458,19.249261840955022
459,3.660828851310729
460,3.9628745187623617
461,18.21444397405016
462,18.20796296285559
463,19.251675424184437
464,20.03
465,17.521203287257997
466,5.668791393620268
467,7.807713990449088
468,3.9703473021246474
469,18.101317449723812
470,18.10440729830639
471,19.302849873046345
472,20.03
473,17.58972298798189
474,4.669745341906719
475,3.9632330522019834
476,18.218350628485158
477,18.211869674480635
478,19.25533067005298
479,20.03
480,17.519953455939966
481,4.63792294950423
482,7.3372177399999146
483,3.9699839854966696
484,18.09921316995296
485,18.102303332604546
486,19.300763947813742
487,20.03
488,17.588690899610402
489,4.668314198405199
490,18.345602812362664
491,18.520534854873514
492,18.347497075123464
493,18.514079503382597
494,20.03
495,17.77704420261735
496,17.558374358879693
497,18.02173775004611
498,18.203972203841076
499,18.0126563218801
500,18.196887901041784
501,19.393664866225713
946,0.9218578895654046
947,515.2638008271874
948,463737.4207444687
949,475.0
950,427500.0
951,39.97461928934014
952,35977.15736040613
953,0.28918153784726547
954,260.26338406253893
955,40.263800827187424
956,36237.42074446868
957,36237.42074446866
2,1, 1,14, 0, 2, 0.00,15.00,Tuesday
7,3.8499999999999996
450,4.046069905782164
451,4.045958877424431
452,4.045981991343227
453,4.045960263040724
454,17.946609219021454
455,18.08658891149372
456,17.934055366007254
457,18.081290834358875
458,19.21739246434188
459,3.7804756374068664
460,4.072543758570458
461,18.188852499725904
462,18.18322316923677
463,19.229575428766225
464,20.03
465,17.448881414687737
466,5.695196900683641
467,7.8449353878691
468,4.080247393601643
469,18.09323585701809
470,18.088964913700277
471,19.27360495177721
472,20.03
473,17.508931781067826
474,4.681137071767125
475,4.072949198481269
476,18.191044442277708
477,18.185415116516857
478,19.231471918511428
479,20.03
480,17.445742037408582
481,4.651563063546803
482,7.363468817456635
483,4.079883972907727
484,18.09138061041859
485,18.08710986980464
486,19.271766156024853
487,20.03
488,17.508047423455988
489,4.679833037424714
490,18.338397388483553
491,18.48871810865676
492,18.332864122137426
493,18.483111306853054
494,20.03
495,17.697443236396293
496,17.477102251533985
497,18.008965270668796
498,18.170169265437966
499,17.99342603768585
500,18.16420800056268
501,19.371705526119847
946,0.9218578895654046
947,515.2638008271874
948,463737.4207444687
949,475.0
950,427500.0
951,39.97461928934014
952,35977.15736040613
953,0.28918153784726547
954,260.26338406253893
955,40.263800827187424
956,36237.42074446868
957,36237.42074446866
2,1, 1,14, 0, 2,15.00,30.00,Tuesday
7,3.9
450,4.136232943798706
451,4.136134812110214
452,4.136162009001999
453,4.136135930131811
454,17.927485004742
455,18.050712773620972
456,17.909895981249445
457,18.046191585516095
458,19.188090994286945
459,3.880159620387185
460,4.167322296764188
461,18.16479017405171
462,18.159925976647465
463,19.209670814059965
464,20.03
465,17.381074271364422
466,5.747425781547349
467,7.886037266835615
468,4.1749779362026
469,18.081929000571996
470,18.071858391579585
471,19.247118111533954
472,20.03
473,17.433821446311008
474,4.703558694205412
475,4.167710881721663
476,18.165224634402126
477,18.160360393626924
478,19.209790396885733
479,20.03
480,17.376663621482763
481,4.6764182818433255
482,7.396450818111248
483,4.174623411695683
484,18.08030446888647
485,18.070233974203834
486,19.24550811383394
487,20.03
488,17.433066501350734
489,4.702409910951133
490,18.328029870652383
491,18.45904340210958
492,18.3166871550272
493,18.454198666511722
494,20.03
495,17.623486538829102
496,17.401121937070567
497,17.997906730223555
498,18.141226240247438
499,17.978156908614594
500,18.136295149362414
501,19.351222896701675
946,0.9218578895654046
947,515.2638008271874
948,463737.4207444687
949,475.0
950,427500.0
951,39.97461928934014
952,35977.15736040613
953,0.28918153784726547
954,260.26338406253893
955,40.263800827187424
956,36237.42074446868
957,36237.42074446866
2,1, 1,14, 0, 2,30.00,45.00,Tuesday
7,3.95
450,4.217776838625044
451,4.217689009655073
452,4.217719628350289
453,4.2176899113757385
454,17.909882043659373
455,18.018772796788724
456,17.88872128130676
457,18.01496424624181
458,19.1609654644465
459,3.9658094465306846
460,4.253208193001918
461,18.142450880196535
462,18.138282346331568
463,19.191078319926753
464,20.03
465,17.318629592350216
466,5.7938007507351585
467,7.9273177379719755
468,4.260626156459104
469,18.069757677617943
470,18.055195537749487
471,19.222861591992448
472,20.03
473,17.364451152698923
474,4.729777681308406
475,4.2535269064108965
476,18.14130248633204
477,18.137133871989693
478,19.18961443959402
479,20.03
480,17.313315521680984
481,4.704876018704454
482,7.430341293439312
483,4.260286280469105
484,18.06834423262472
485,18.053782141202397
486,19.221460836996712
487,20.03
488,17.363814969346567
489,4.728783748718172
490,18.31692361507827
491,18.432103362864865
492,18.301104210336746
493,18.427951447517323
494,20.03
495,17.554973487220586
496,17.331428800306448
497,17.988441448128764
498,18.115460936767413
499,17.965404451889196
500,18.11150076303222
501,19.33253779213057
946,0.9218578895654046
947,515.2638008271874
948,463737.4207444687
949,475.0
950,427500.0
951,39.97461928934014
952,35977.15736040613
953,0.28918153784726547
954,260.26338406253893
955,40.263800827187424
956,36237.42074446868
957,36237.42074446866
2,1, 1,14, 0, 2,45.00,60.00,Tuesday
7,4.0
450,4.293125790023038
451,4.293046108819663
452,4.293079600354125
453,4.293046836849452
454,17.89399401042956
455,17.98994941385276
456,17.86994523372634
457,17.986809025225593
458,19.1361549942961
459,4.04144970630078
460,4.332586762916858
461,18.12176840658643
462,18.118241349696383
463,19.17368687075811
464,20.03
465,17.261475833161423
466,5.839704360511405
467,7.968865889676124
468,4.3396489801095814
469,18.057799283124304
470,18.039651554311877
471,19.20069105054677
472,20.03
473,17.300937204046093
474,4.757411638934514
475,4.332799261945805
476,18.119283209060345
477,18.11575604797774
478,19.17089622405018
479,20.03
480,17.255431381196704
481,4.7345697811895775
482,7.4648175667814485
483,4.339327567069383
484,18.05657854621613
485,18.0384308191611
486,19.199481281426444
487,20.03
488,17.300412424138685
489,4.756565982841039
490,18.306062259390472
491,18.40771139507434
492,18.286677991792224
493,18.404198378642896
494,20.03
495,17.49217855117127
496,17.26774603071762
497,17.979586034532684
498,18.092065263660295
499,17.95380457788169
500,18.08901068640955
501,19.31581126138308
946,0.9218578895654046
947,515.2638008271874
948,463737.4207444687
949,475.0
950,427500.0
951,39.97461928934014
952,35977.15736040613
953,0.28918153784726547
954,260.26338406253893
955,40.263800827187424
956,36237.42074446868
957,36237.42074446866
2,1, 1,14, 0, 3, 0.00,15.00,Tuesday
7,3.925
450,4.29664302604494
451,4.2965709932702705
452,4.296606305622931
453,4.296571572055746
454,17.877583088241945
455,17.963007679104997
456,17.85181637843482
457,17.96049169545391
458,19.113648222323963
459,4.072507535111539
460,4.341931384367854
461,18.102208818443817
462,18.09927669071378
463,19.157547210281116
464,20.03
465,17.20866893294589
466,5.787505316787701
467,7.920476334767557
468,4.348483319391342
469,18.04536566568828
470,18.024690423196468
471,19.180518602399545
472,20.03
473,17.24272290198484
474,4.730707746921041
475,4.342015490904735
476,18.09863453971485
477,18.095702296545767
478,19.153682668825887
479,20.03
480,17.202185600481783
481,4.716480682590657
482,7.4238431879943505
483,4.34818682358696
484,18.04432164240006
485,18.02364637167878
486,19.179483969003723
487,20.03
488,17.242302281597087
489,4.730059212765809
490,18.2946211845498
491,18.38513732238025
492,18.272761181623192
493,18.382216932616195
494,20.03
495,17.43474829222385
496,17.20940414906002
497,17.964353297299226
498,18.06558552888722
499,17.93718848242061
500,18.063351634472905
501,19.29487881160457
946,0.9218578895654046
947,515.2638008271874
948,463737.4207444687
949,475.0
950,427500.0
951,39.97461928934014
952,35977.15736040613
953,0.28918153784726547
954,260.26338406253893
955,40.263800827187424
956,36237.42074446868
957,36237.42074446866
2,1, 1,14, 0, 3,15.00,30.00,Tuesday
7,3.85
450,4.275584285748438
451,4.27551868533666
452,4.275555225818179
453,4.275519143383309
454,17.858276984659152
455,17.93537846331239
456,17.83149595819474
457,17.933430831499322
458,19.09013073687934
459,4.073973424640233
460,4.326743647985857
461,18.082511489065457
462,18.080125959684818
463,19.141176609344654
464,20.03
465,17.159046180197002
466,5.724914034190192
467,7.863637673144808
468,4.332739492551926
469,18.03137864219897
470,18.00895742484193
471,19.16077617699428
472,20.03
473,17.188784340488414
474,4.68955285614561
475,4.326693208616888
476,18.07809407766544
477,18.07570843342154
478,19.136487598585266
479,20.03
480,17.15230435869708
481,4.671973634305175
482,7.375869800764349
483,4.33247002502676
484,18.030497314133644
485,18.008076051672713
486,19.159902805760428
487,20.03
488,17.188458584248927
489,4.6890422298931185
490,18.281577054413464
491,18.36305063086997
492,18.258020486615546
493,18.360674747665602
494,20.03
495,17.381537728722964
496,17.155100242045467
497,17.944817957356854
498,18.037584723882354
499,17.917011432303287
500,18.036074209858484
501,19.27106755683287
946,0.9218578895654046
947,515.2638008271874
948,463737.4207444687
949,475.0
950,427500.0
951,39.97461928934014
952,35977.15736040613
953,0.28918153784726547
954,260.26338406253893
955,40.263800827187424
956,36237.42074446868
957,36237.42074446866
2,1, 1,14, 0, 3,30.00,45.00,Tuesday
7,3.7750000000000004
450,4.240190828232769
451,4.2401305463588885
452,4.240167884303272
453,4.2401309080083
454,17.83940267290415
455,17.907615807095123
456,17.809791288663806
457,17.90617512630116
458,19.065938996048388
459,4.0538727506382015
460,4.296990099999508
461,18.06231667387088
462,18.060427158458403
463,19.124055076849857
464,20.03
465,17.127136941824062
466,5.66066480113227
467,7.805057943054749
468,4.302424484758849
469,18.015817606399345
470,17.992154207202027
471,19.14085895031455
472,20.03
473,17.13854188492445
474,4.646413217557722
475,4.296808867835796
476,18.057271995301726
477,18.05538237459133
478,19.118757688735943
479,20.03
480,17.105625789933505
481,4.629803126819866
482,7.326386673298487
483,4.302182713356628
484,18.015085812437555
485,17.991422360974582
486,19.140133814016036
487,20.03
488,17.138300784385738
489,4.646021720095177
490,18.26694121826082
491,18.341011933155077
492,18.24217758012711
493,18.33913017307835
494,20.03
495,17.331930670130806
496,17.106172812344745
497,17.92443282347789
498,18.00993289088391
499,17.895862597936627
500,18.009065140034995
501,19.24685123294816
946,0.9218578895654046
947,515.2638008271874
948,463737.4207444687
949,475.0
950,427500.0
951,39.97461928934014
952,35977.15736040613
953,0.28918153784726547
954,260.26338406253893
955,40.263800827187424
956,36237.42074446868
957,36237.42074446866
2,1, 1,14, 0, 3,45.00,60.00,Tuesday
7,3.7
450,4.194450408996646
451,4.194394517004541
452,4.194432325612447
453,4.194394802043508
454,17.817905631026886
455,17.88096105238027
456,17.788358192186816
457,17.879972851467222
458,19.0425757700443
459,4.017874047890608
460,4.2565629552733775
461,18.04187268434806
462,18.040430877936775
463,19.1065130685178
464,20.03
465,17.082172169606192
466,5.5959918853459385
467,7.7459602166941295
468,4.261453366080056
469,17.999098853178932
470,17.974659235302596
471,19.121001364831695
472,20.03
473,17.09272144082496
474,4.6027000604561294
475,4.256260869499792
476,18.036371939945308
477,18.034930043734533
478,19.100776660509826
479,20.03
480,17.06280814241706
481,4.587298930280326
482,7.27626103534601
483,4.261239142650404
484,17.998503673930497
485,17.9740640035696
486,19.120411668324163
487,20.03
488,17.092555057362954
489,4.602414076423315
490,18.25110832630016
491,18.319170764936462
492,18.2256101263755
493,18.31773501634878
494,20.03
495,17.28668640298884
496,17.059664634976116
497,17.903585852494565
498,17.98325844332489
499,17.874797862931377
500,17.982960294542305
501,19.223328486684245
946,0.9218578895654046
947,515.2638008271874
948,463737.4207444687
949,475.0
950,427500.0
951,39.97461928934014
952,35977.15736040613
953,0.28918153784726547
954,260.26338406253893
955,40.263800827187424
956,36237.42074446868
957,36237.42074446866
2,1, 1,14, 0, 4, 0.00,15.00,Tuesday
7,3.6500000000000004
450,4.15766414746784
451,4.157611458468968
452,4.157649801421765
453,4.1576116846005
454,17.796514005151018
455,17.85521371395815
456,17.769204545162783
457,17.854630077839
458,19.019742579595473
459,3.9790536735778312
460,4.2238416153539795
461,18.021510374658618
462,18.020471246337134
463,19.088770490497975
464,20.03
465,17.039232165759447
466,5.558412813942937
467,7.71652112691811
468,4.228247759532083
469,17.98183002903855
470,17.957082486257683
471,19.101344002585556
472,20.03
473,17.049053852126264
474,4.583349412000416
475,4.223429293982179
476,18.01569563312713
477,18.014656434188964
478,19.08273595770888
479,20.03
480,17.03465409736065
481,4.5686802396639905
482,7.257778945285963
483,4.228059155685505
484,17.98135899566075
485,17.956611404934545
486,19.100877391494315
487,20.03
488,17.048955166059564
489,4.58313091162006
490,18.23470743849929
491,18.297775260772752
492,18.20895000163797
493,18.296740664246364
494,20.03
495,17.243541388885742
496,17.01673427198402
497,17.885154658263527
498,17.95978775434335
499,17.857083491039443
500,17.960014587144983
501,19.203417577511935
946,0.9218578895654046
947,515.2638008271874
948,463737.4207444687
949,475.0
950,427500.0
951,39.97461928934014
952,35977.15736040613
953,0.28918153784726547
954,260.26338406253893
955,40.263800827187424
956,36237.42074446868
957,36237.42074446866
2,1, 1,14, 0, 4,15.00,30.00,Tuesday
7,3.6
450,4.119712113670059
451,4.119661935016631
452,4.119700717479026
453,4.11966211465242
454,17.776733540914037
455,17.831461086611984
456,17.74981614260365
457,17.831250505701195
458,18.999310192086067
459,3.9373252110942842
460,4.189436525701476
461,18.001754887498702
462,18.001082533358133
463,19.071763282796848
464,20.03
465,16.999131668081013
466,5.52381060246455
467,7.689904997530448
468,4.19340027133782
469,17.96482603725924
470,17.94005174794045
471,19.082736190052145
472,20.03
473,17.00829061326725
474,4.554023268398396
475,4.1889272904533374
476,17.995751273501707
477,17.995078868909037
478,19.065554583740507
479,20.03
480,16.99463277263941
481,4.547549476796689
482,7.231882124627759
483,4.193236128456196
484,17.964467452451178
485,17.939693122629194
486,19.08238107330418
487,20.03
488,17.008254342039788
489,4.553911018671101
490,18.21854412270422
491,18.277262589112617
492,18.19279097360156
493,18.27659343135269
494,20.03
495,17.203363241294223
496,16.975520962678154
497,17.868533201122872
498,17.938311342891662
499,17.84109504062756
500,17.939028016447256
501,19.186307682691645
946,0.9218578895654046
947,515.2638008271874
948,463737.4207444687
949,475.0
950,427500.0
951,39.97461928934014
952,35977.15736040613
953,0.28918153784726547
954,260.26338406253893
955,40.263800827187424
956,36237.42074446868
957,36237.42074446866
2,1, 1,14, 0, 4,30.00,45.00,Tuesday
7,3.55
450,4.07958216382185
451,4.079533977387678
452,4.079573108125036
453,4.079534120132108
454,17.75815943445096
455,17.809351511394944
456,17.731669244041875
457,17.809485878817867
458,18.98077221349058
459,3.893383128934599
460,4.152449797897128
461,17.982921054158016
462,17.98258455631382
463,19.055817339553997
464,20.03
465,16.960804166177034
466,5.489709784111824
467,7.663890278643578
468,4.1560116489524095
469,17.948404737217928
470,17.92378123050197
471,19.065428346354548
472,20.03
473,16.969371501547602
474,4.536197278901568
475,4.151858343014277
476,17.97682402143113
477,17.976487493923177
478,19.049527292859487
479,20.03
480,16.95637550572988
481,4.525715485278056
482,7.215669660999936
483,4.155870771321122
484,17.948148256630713
485,17.923524718229487
486,19.065174477289855
487,20.03
488,16.96939296803232
489,4.536143301878894
490,18.202957335505356
491,18.25790394250578
492,18.17737935407476
493,18.257569437312224
494,20.03
495,17.165071702217404
496,16.936051713447366
497,17.85262887515901
498,17.918035654806562
499,17.825690681630824
500,17.91921086660118
501,19.17064058750048
946,0.9218578895654046
947,515.2638008271874
948,463737.4207444687
949,475.0
950,427500.0
951,39.97461928934014
952,35977.15736040613
953,0.28918153784726547
954,260.26338406253893
955,40.263800827187424
956,36237.42074446868
957,36237.42074446866
2,1, 1,14, 0, 4,45.00,60.00,Tuesday
7,3.5
450,4.037503557766815
451,4.037456954221648
452,4.0374963613616535
453,4.037457067659238
454,17.740321389261805
455,17.78814514844447
456,17.71416587352047
457,17.78860221093171
458,18.963459341468468
459,3.8478161687621113
460,4.113164112544865
461,17.964829906149976
462,17.964803930224285
463,19.040852338567845
464,20.03
465,16.924098144168457
466,5.45577529333417
467,7.643909629475388
468,4.116363303603104
469,17.932571928038413
470,17.908149972795258
471,19.049286841140837
472,20.03
473,16.932103722980283
474,4.507993514003829
475,4.112505152332692
476,17.958706157801014
477,17.95868017208446
478,19.03454485017583
479,20.03
480,16.919725015347623
481,4.503744834219674
482,7.196629421478917
483,4.116244417542215
484,17.932408594340284
485,17.90798661664908
486,19.049125347875457
487,20.03
488,16.932179199222087
489,4.508030812926563
490,18.18797241804762
491,18.239483008679354
492,18.162612717627457
493,18.23945796122563
494,20.03
495,17.128482586188586
496,16.898336075757065
497,17.837158644090565
498,17.898427181497865
499,17.810658013907794
500,17.900033108409872
501,19.155857301109812
946,0.9218578895654046
947,515.2638008271874
948,463737.4207444687
949,475.0
950,427500.0
951,39.97461928934014
952,35977.15736040613
953,0.28918153784726547
954,260.26338406253893
955,40.263800827187424
956,36237.42074446868
957,36237.42074446866
2,1, 1,14, 0, 5, 0.00,15.00,Tuesday
7,3.55
450,4.0485757725700315
451,4.048530050668445
452,4.048570006592607
453,4.048530141558918
454,17.724591103835497
455,17.76898191598543
456,17.698661831740626
457,17.76974031818295
458,18.947065701426837
459,3.8324438884405234
460,4.124921563218413
461,17.948198621482774
462,17.94846061432639
463,19.02675768412337
464,20.03
465,16.889191858383295
466,5.514525250918041
467,7.700873881316738
468,4.12781338479223
469,17.91817693916132
470,17.893936786620554
471,19.03414677039421
472,20.03
473,16.89662523350998
474,4.580521383856308
475,4.124204044615933
476,17.942086022467215
477,17.942348024540195
478,19.020468568238012
479,20.03
480,16.8848563755724
481,4.570323888459143
482,7.261215361121458
483,4.1277145526632015
484,17.91809910421716
485,17.893858938296784
486,19.034070079339134
487,20.03
488,16.896751166745602
489,4.580628478706956
490,18.174501896053247
491,18.22267741133896
492,18.149334408452052
493,18.22293936661081
494,20.03
495,17.093501911136578
496,16.862270814957157
497,17.826811186213355
498,17.883587282032693
499,17.8006533590419
500,17.88561124158552
501,19.145143543238188
946,0.9218578895654046
947,515.2638008271874
948,463737.4207444687
949,475.0
950,427500.0
951,39.97461928934014
952,35977.15736040613
953,0.28918153784726547
954,260.26338406253893
955,40.263800827187424
956,36237.42074446868
957,36237.42074446866
2,1, 1,14, 0, 5,15.00,30.00,Tuesday
7,3.6
450,4.0735441460084
451,4.073498942559996
452,4.073539512176054
453,4.07349901560487
454,17.71268077185395
455,17.75352052607281
456,17.68701967486798
457,17.75456520448045
458,18.933709768130736
459,3.835487308290354
460,4.15030584453847
461,17.933835268141646
462,17.934367311073792
463,19.014438367825583
464,20.03
465,16.856985075392455
466,5.583747231393318
467,7.771397431429136
468,4.152925340558293
469,17.906099788964728
470,17.88207235819956
471,19.02085916078382
472,20.03
473,16.863849391935826
474,4.6646130391162615
475,4.149539505711538
476,17.927752008644237
477,17.92828407871646
478,19.008184141685323
479,20.03
480,16.852691848169368
481,4.654429685266109
482,7.339753604060093
483,4.1528453360530175
484,17.90610083042387
485,17.88207339491314
486,19.020860713864526
487,20.03
488,16.864021622126476
489,4.66478543265805
490,18.16332273487395
491,18.20817101237241
492,18.138379952253658
493,18.20870213536393
494,20.03
495,17.06109475138037
496,16.828647820224173
497,17.82066132550158
498,17.872518703844246
499,17.79494496982369
500,17.874962312977864
501,19.13782092185173
946,0.9218578895654046
947,515.2638008271874
948,463737.4207444687
949,475.0
950,427500.0
951,39.97461928934014
952,35977.15736040613
953,0.28918153784726547
954,260.26338406253893
955,40.263800827187424
956,36237.42074446868
957,36237.42074446866
2,1, 1,14, 0, 5,30.00,45.00,Tuesday
7,3.6500000000000004
450,4.1052106563809065
451,4.105165704270826
452,4.10520692479863
453,4.1051657630937255
454,17.703232102368613
455,17.74033004791485