Program Version,EnergyPlus, Version 23.2.0-7636e6b3e9, YMD=2026.07.21 16:01
1,5,Environment Title[],Latitude[deg],Longitude[deg],Time Zone[],Elevation[m]
2,8,Day of Simulation[],Month[],Day of Month[],DST Indicator[1=yes 0=no],Hour[],StartMinute[],EndMinute[],DayType
3,5,Cumulative Day of Simulation[],Month[],Day of Month[],DST Indicator[1=yes 0=no],DayType  ! When Daily Meters Requested
4,2,Cumulative Days of Simulation[],Month[]  ! When Monthly Meters Requested
5,1,Cumulative Days of Simulation[] ! When Run Period Meters Requested
6,1,Calendar Year of Simulation[] ! When Annual Meters Requested
9,1,Electricity:Facility [J] !TimeStep
21,1,Electricity:Building [J] !TimeStep
57,1,InteriorLights:Electricity [J] !TimeStep
958,1,Electricity:HVAC [J] !TimeStep
1367,1,Electricity:Plant [J] !TimeStep
1268,1,Fans:Electricity [J] !TimeStep
515,1,EnergyTransfer:Building [J] !TimeStep
End of Data Dictionary
1,WINTERDAY,  55.95,  -3.37,   0.00,  41.10
2,1, 1,14, 0, 1, 0.00,15.00,Tuesday
9,799380.6252450668
21,427500.0
57,337500.0
515,480889.8873369174
958,371880.6252450668
1268,335643.2045005982
1367,0.0
2,1, 1,14, 0, 1,15.00,30.00,Tuesday
9,799380.6252450668
21,427500.0
57,337500.0
515,475020.2921653191
958,371880.6252450668
1268,335643.2045005982
1367,0.0
2,1, 1,14, 0, 1,30.00,45.00,Tuesday
9,799380.6252450668
21,427500.0
57,337500.0
515,487299.3209105499
958,371880.6252450668
1268,335643.2045005982
1367,0.0
2,1, 1,14, 0, 1,45.00,60.00,Tuesday
9,799380.6252450668
21,427500.0
57,337500.0
515,499963.1338768439
958,371880.6252450668
1268,335643.2045005982
1367,0.0
2,1, 1,14, 0, 2, 0.00,15.00,Tuesday
9,799380.6252450668
21,427500.0
57,337500.0
515,508262.5645371318
958,371880.6252450668
1268,335643.2045005982
1367,0.0
2,1, 1,14, 0, 2,15.00,30.00,Tuesday
9,799380.6252450668
21,427500.0
57,337500.0
515,514264.4061760778
958,371880.6252450668
1268,335643.2045005982
1367,0.0
2,1, 1,14, 0, 2,30.00,45.00,Tuesday
9,799380.6252450668
21,427500.0
57,337500.0
515,519720.65253891784
958,371880.6252450668
1268,335643.2045005982
1367,0.0
2,1, 1,14, 0, 2,45.00,60.00,Tuesday
9,799380.6252450668
21,427500.0
57,337500.0
515,525460.1829562157
958,371880.6252450668
1268,335643.2045005982
1367,0.0
2,1, 1,14, 0, 3, 0.00,15.00,Tuesday
9,799380.6252450668
21,427500.0
57,337500.0
515,540970.9260267111
958,371880.6252450668
1268,335643.2045005982
1367,0.0
2,1, 1,14, 0, 3,15.00,30.00,Tuesday
9,799380.6252450668
21,427500.0
57,337500.0
515,553427.2193415834
958,371880.6252450668
1268,335643.2045005982
1367,0.0
2,1, 1,14, 0, 3,30.00,45.00,Tuesday
9,799380.6252450668
21,427500.0
57,337500.0
515,564940.2114271238
958,371880.6252450668
1268,335643.2045005982
1367,0.0
2,1, 1,14, 0, 3,45.00,60.00,Tuesday
9,799380.6252450668
21,427500.0
57,337500.0
515,579394.9126154607
958,371880.6252450668
1268,335643.2045005982
1367,0.0
2,1, 1,14, 0, 4, 0.00,15.00,Tuesday
9,799380.6252450668
21,427500.0
57,337500.0
515,594932.4157167493
958,371880.6252450668
1268,335643.2045005982
1367,0.0
2,1, 1,14, 0, 4,15.00,30.00,Tuesday
9,799380.6252450668
21,427500.0
57,337500.0
515,610455.8441431132
958,371880.6252450668
1268,335643.2045005982
1367,0.0
2,1, 1,14, 0, 4,30.00,45.00,Tuesday
9,799380.6252450668
21,427500.0
57,337500.0
515,625858.2273084137
958,371880.6252450668
1268,335643.2045005982
1367,0.0
2,1, 1,14, 0, 4,45.00,60.00,Tuesday
9,799380.6252450668
21,427500.0
57,337500.0
515,640627.8435463927
958,371880.6252450668
1268,335643.2045005982
1367,0.0
2,1, 1,14, 0, 5, 0.00,15.00,Tuesday
9,799380.6252450668
21,427500.0
57,337500.0
515,655497.3779142209
958,371880.6252450668
1268,335643.2045005982
1367,0.0
2,1, 1,14, 0, 5,15.00,30.00,Tuesday
9,799380.6252450668
21,427500.0
57,337500.0
515,671929.4912723898
958,371880.6252450668
1268,335643.2045005982
1367,0.0
2,1, 1,14, 0, 5,30.00,45.00,Tuesday
9,799380.6252450668
21,427500.0
57,337500.0
515,688870.7600977505
958,371880.6252450668
1268,335643.2045005982
1367,0.0
2,1, 1,14, 0, 5,45.00,60.00,Tuesday
9,799380.6252450668
21,427500.0
57,337500.0
515,705623.7160369626
958,371880.6252450668
1268,335643.2045005982
1367,0.0
2,1, 1,14, 0, 6, 0.00,15.00,Tuesday
9,799380.6252450668
21,427500.0
57,337500.0
515,720158.6672430354
958,371880.6252450668
1268,335643.2045005982
1367,0.0
2,1, 1,14, 0, 6,15.00,30.00,Tuesday
9,799380.6252450668
21,427500.0
57,337500.0
515,732328.3827125075
958,371880.6252450668
1268,335643.2045005982
1367,0.0
2,1, 1,14, 0, 6,30.00,45.00,Tuesday
9,799380.6252450668
21,427500.0
57,337500.0
515,743160.6776410616
958,371880.6252450668
1268,335643.2045005982
1367,0.0
2,1, 1,14, 0, 6,45.00,60.00,Tuesday
9,799380.6252450668
21,427500.0
57,337500.0
515,753252.2281701412
958,371880.6252450668
1268,335643.2045005982
1367,0.0
2,1, 1,14, 0, 7, 0.00,15.00,Tuesday
9,901313.4683544362
21,427500.0
57,337500.0
515,12945079.631399292
958,371880.6252450668
1268,335643.2045005982
1367,101932.84310936942
2,1, 1,14, 0, 7,15.00,30.00,Tuesday
9,900339.2264409959
21,427500.0
57,337500.0
515,12854954.990632912
958,371880.6252450668
1268,335643.2045005982
1367,100958.60119592915
2,1, 1,14, 0, 7,30.00,45.00,Tuesday
9,890401.9292710938
21,427500.0
57,337500.0
515,12307603.447411235
958,371880.6252450668
1268,335643.2045005982
1367,91021.30402602693
2,1, 1,14, 0, 7,45.00,60.00,Tuesday
9,872091.1809562232
21,427500.0
57,337500.0
515,11158123.0289062
958,371880.6252450668
1268,335643.2045005982
1367,72710.55571115638
2,1, 1,14, 0, 8, 0.00,15.00,Tuesday
9,853282.0110622458
21,427500.0
57,337500.0
515,10144225.485512804
958,371880.6252450668
1268,335643.2045005982
1367,53901.385817179034
2,1, 1,14, 0, 8,15.00,30.00,Tuesday
9,845111.471468219
21,427500.0
57,337500.0
515,9377095.16472908
958,371880.6252450668
1268,335643.2045005982
1367,45730.84622315214
2,1, 1,14, 0, 8,30.00,45.00,Tuesday
9,842888.1680061404
21,427500.0
57,337500.0
515,9096780.421793602
958,371880.6252450668
1268,335643.2045005982
1367,43507.54276107357
2,1, 1,14, 0, 8,45.00,60.00,Tuesday
9,840061.8080570764
21,427500.0
57,337500.0
515,8749850.251737539
958,371880.6252450668
1268,335643.2045005982
1367,40681.182812009574
2,1, 1,14, 0, 9, 0.00,15.00,Tuesday
9,8365976.483514296
21,7875000.0
57,6075000.0
515,4975497.195930579
958,473445.8499147787
1268,335643.2045005982
1367,17530.633599517605
2,1, 1,14, 0, 9,15.00,30.00,Tuesday
9,8364434.807991227
21,7875000.0
57,6075000.0
515,4437057.9833941525
958,473445.8499147787
1268,335643.2045005982
1367,15988.958076449204
2,1, 1,14, 0, 9,30.00,45.00,Tuesday
9,8363188.672233182
21,7875000.0
57,6075000.0
515,3874189.9467630126
958,473445.8499147787
1268,335643.2045005982
1367,14742.822318404265
2,1, 1,14, 0, 9,45.00,60.00,Tuesday
9,8362157.146378572
21,7875000.0
57,6075000.0
515,3456417.3092950108
958,473445.8499147787
1268,335643.2045005982
1367,13711.296463794471
2,1, 1,14, 0,10, 0.00,15.00,Tuesday
9,11040719.73185287
21,10462500.0
57,6412500.0
515,3545788.682455025
958,566389.1893648966
1268,335643.2045005982
1367,11830.542487972963
2,1, 1,14, 0,10,15.00,30.00,Tuesday
9,11042495.270799054
21,10462500.0
57,6412500.0
515,3897345.259796373
958,566389.1893648966
1268,335643.2045005982
1367,13606.081434156906
2,1, 1,14, 0,10,30.00,45.00,Tuesday
9,11045248.450133396
21,10462500.0
57,6412500.0
515,4022787.173977206
958,566389.1893648966
1268,335643.2045005982
1367,16359.260768499184
2,1, 1,14, 0,10,45.00,60.00,Tuesday
9,11047859.236312412
21,10462500.0
57,6412500.0
515,4170674.268937936
958,566389.1893648966
1268,335643.2045005982
1367,18970.04694751434
2,1, 1,14, 0,11, 0.00,15.00,Tuesday
9,11400376.517411435
21,10800000.0
57,6750000.0
515,4471061.199763412
958,581496.3092349484
1268,335643.2045005982
1367,18880.208176486703
2,1, 1,14, 0,11,15.00,30.00,Tuesday
9,11402366.901694957
21,10800000.0
57,6750000.0
515,4818535.45365413
958,583545.8063161323
1268,337692.7015817822
1367,18821.09537882551
2,1, 1,14, 0,11,30.00,45.00,Tuesday
9,11404663.27463233
21,10800000.0
57,6750000.0
515,5103814.50315512
958,585865.5737508755
1268,340012.46901652537
1367,18797.70088145318
2,1, 1,14, 0,11,45.00,60.00,Tuesday
9,11406306.313357268
21,10800000.0
57,6750000.0
515,5356200.716198688
958,587508.3622706489
1268,341655.2575362988
1367,18797.951086618043
2,1, 1,14, 0,12, 0.00,15.00,Tuesday
9,11050150.553571794
21,10462500.0
57,6412500.0
515,5172784.228483405
958,568447.9289974784
1268,337701.94413318
1367,19202.624574316334
2,1, 1,14, 0,12,15.00,30.00,Tuesday
9,11054489.619400987
21,10462500.0
57,6412500.0
515,5409263.004002347
958,572713.4785214307
1268,341967.4936571323
1367,19276.140879556842
2,1, 1,14, 0,12,30.00,45.00,Tuesday
9,11060172.295631966
21,10462500.0
57,6412500.0
515,5556270.916475576
958,578666.6934829626
1268,347920.7086186641
1367,19005.602149004862
2,1, 1,14, 0,12,45.00,60.00,Tuesday
9,11064947.678847618
21,10462500.0
57,6412500.0
515,5671093.134932694
958,583511.2272342212
1268,352765.2423699227
1367,18936.451613397687
2,1, 1,14, 0,13, 0.00,15.00,Tuesday
9,10001391.81563778
21,9450000.0
57,5400000.0
515,4708699.2429144215
958,531926.9277252775
1268,342164.96392595954
1367,19464.88791250215
2,1, 1,14, 0,13,15.00,30.00,Tuesday
9,10002786.670790961
21,9450000.0
57,5400000.0
515,4592205.78897452
958,532855.7582319097
1268,343093.7944325918
1367,19930.912559051125
2,1, 1,14, 0,13,30.00,45.00,Tuesday
9,10006130.960075494
21,9450000.0
57,5400000.0
515,4656645.459159998
958,536771.4179718036
1268,347009.4541724856
1367,19359.542103689404
2,1, 1,14, 0,13,45.00,60.00,Tuesday
9,10009767.17935668
21,9450000.0
57,5400000.0
515,4708990.623647904
958,540547.0607964351
1268,350785.09699711716
1367,19220.118560242903
2,1, 1,14, 0,14, 0.00,15.00,Tuesday
9,10728199.825714562
21,10125000.0
57,6075000.0
515,5849433.0680687055
958,594264.1774551931
1268,377887.1000498554
1367,8935.648259370533
2,1, 1,14, 0,14,15.00,30.00,Tuesday
9,10732110.715161031
21,10125000.0
57,6075000.0
515,5867404.812402841
958,598620.1692914062
1268,382243.0918860685
1367,8490.545869626329
2,1, 1,14, 0,14,30.00,45.00,Tuesday
9,10733620.19435506
21,10125000.0
57,6075000.0
515,5854434.949892964
958,600712.4044491269
1268,384335.3270437892
1367,7907.789905933853
2,1, 1,14, 0,14,45.00,60.00,Tuesday
9,10733151.38773128
21,10125000.0
57,6075000.0
515,5756074.6774846
958,600484.8857032708
1268,384107.8082979331
1367,7666.50202801167
2,1, 1,14, 0,15, 0.00,15.00,Tuesday
9,10972772.550422654
21,10350000.0
57,6750000.0
515,6053450.592885856
958,617401.4747260751
1268,391525.99570307723
1367,5371.075696577341
2,1, 1,14, 0,15,15.00,30.00,Tuesday
9,10973301.134109996
21,10350000.0
57,6750000.0
515,6015498.823335606
958,618477.6291857163
1268,392602.1501627185
1367,4823.504924279587
2,1, 1,14, 0,15,30.00,45.00,Tuesday
9,10972918.28077065
21,10350000.0
57,6750000.0
515,5971306.8077194635
958,618309.7506486436
1268,392434.2716256458
1367,4608.530122007092
2,1, 1,14, 0,15,45.00,60.00,Tuesday
9,10971845.215554891
21,10350000.0
57,6750000.0
515,5909535.799588894
958,617130.4617145892
1268,391254.9826915914
1367,4714.753840301237
2,1, 1,14, 0,16, 0.00,15.00,Tuesday
9,10493838.05368287
21,9900000.0
57,6750000.0
515,5463274.182825925
958,585711.434166821
1268,378514.9537359457
1367,8126.61951604929
2,1, 1,14, 0,16,15.00,30.00,Tuesday
9,10490991.265565153
21,9900000.0
57,6750000.0
515,5224166.666760278
958,579252.4678828478
1268,372055.98745197244
1367,11738.797682305012
2,1, 1,14, 0,16,30.00,45.00,Tuesday
9,10487305.19492311
21,9900000.0
57,6750000.0
515,4894798.728786229
958,568575.7964420165
1268,361379.3160111412
1367,18729.398481094064
2,1, 1,14, 0,16,45.00,60.00,Tuesday
9,10472016.84316812
21,9900000.0
57,6750000.0
515,4572297.037538275
958,551406.810538559
1268,344210.3301076837
1367,20610.032629562484
2,1, 1,14, 0,17, 0.00,15.00,Tuesday
9,9531212.926336514
21,9000000.0
57,6750000.0
515,3565340.726686478
958,509371.73410594964
1268,335852.13965482154
1367,21841.192230565437
2,1, 1,14, 0,17,15.00,30.00,Tuesday
9,9530468.311329288
21,9000000.0
57,6750000.0
515,3433637.2042872803
958,509375.33345132484
1268,335855.73900019674
1367,21092.97787796298
2,1, 1,14, 0,17,30.00,45.00,Tuesday
9,9530051.453425832
21,9000000.0
57,6750000.0
515,3278036.1699974593
958,509295.4792176875
1268,335775.8847665594
1367,20755.97420814455
2,1, 1,14, 0,17,45.00,60.00,Tuesday
9,9529717.976785949
21,9000000.0
57,6750000.0
515,3157816.9051169045
958,509295.50167036033
1268,335775.90721923223
1367,20422.47511558808
2,1, 1,14, 0,18, 0.00,15.00,Tuesday
9,9529436.979825074
21,9000000.0
57,6750000.0
515,3038614.334779058
958,509162.7989517263
1268,335643.2045005982
1367,20274.18087334728
2,1, 1,14, 0,18,15.00,30.00,Tuesday
9,9529322.722401477
21,9000000.0
57,6750000.0
515,2933751.9249103153
958,509162.7989517263
1268,335643.2045005982
1367,20159.923449750324
2,1, 1,14, 0,18,30.00,45.00,Tuesday
9,9529212.374488236
21,9000000.0
57,6750000.0
515,2844704.301911832
958,509162.7989517263
1268,335643.2045005982
1367,20049.57553651045
2,1, 1,14, 0,18,45.00,60.00,Tuesday
9,9529157.567196336
21,9000000.0
57,6750000.0
515,2741283.3311657156
958,509162.7989517263
1268,335643.2045005982
1367,19994.76824460951
2,1, 1,14, 0,19, 0.00,15.00,Tuesday
9,5836451.838937457
21,5400000.0
57,4050000.0
515,2188187.0143675366
958,416487.94519038935
1268,335643.2045005982
1367,19963.893747068076
2,1, 1,14, 0,19,15.00,30.00,Tuesday
9,5833175.1420233715
21,5400000.0
57,4050000.0
515,2515186.556325441
958,416487.94519038935
1268,335643.2045005982
1367,16687.196832983253
2,1, 1,14, 0,19,30.00,45.00,Tuesday
9,5833421.295165101
21,5400000.0
57,4050000.0
515,2740141.6771508697
958,416487.94519038935
1268,335643.2045005982
1367,16933.34997471262
2,1, 1,14, 0,19,45.00,60.00,Tuesday
9,5833881.509241331
21,5400000.0
57,4050000.0
515,2931744.251891229
958,416487.94519038935
1268,335643.2045005982
1367,17393.56405094307
2,1, 1,14, 0,20, 0.00,15.00,Tuesday
9,3104008.0727076866
21,2700000.0
57,1350000.0
515,3479607.819432456
958,382259.6100366566
1268,335643.2045005982
1367,21748.46267103002
2,1, 1,14, 0,20,15.00,30.00,Tuesday
9,3106359.1331206947
21,2700000.0
57,1350000.0
515,4163082.9482369195
958,382259.6100366566
1268,335643.2045005982
1367,24099.523084037937
2,1, 1,14, 0,20,30.00,45.00,Tuesday
9,3107066.3538658195
21,2700000.0
57,1350000.0
515,4321966.645235524
958,382259.6100366566
1268,335643.2045005982
1367,24806.743829162693
2,1, 1,14, 0,20,45.00,60.00,Tuesday
9,3110184.9514639284
21,2700000.0
57,1350000.0
515,5112637.846758526
958,382259.6100366566
1268,335643.2045005982
1367,27925.341427271615
2,1, 1,14, 0,21, 0.00,15.00,Tuesday
9,1814597.3365190064
21,1440000.0
57,1350000.0
515,655258.1354404485
958,374597.33651900647
1268,335643.2045005982
1367,0.0
2,1, 1,14, 0,21,15.00,30.00,Tuesday
9,1814597.3365190064
21,1440000.0
57,1350000.0
515,620550.2003953243
958,374597.33651900647
1268,335643.2045005982
1367,0.0
2,1, 1,14, 0,21,30.00,45.00,Tuesday
9,1814597.3365190064
21,1440000.0
57,1350000.0
515,618323.6129080935
958,374597.33651900647
1268,335643.2045005982
1367,0.0
2,1, 1,14, 0,21,45.00,60.00,Tuesday
9,1814597.3365190064
21,1440000.0
57,1350000.0
515,611849.5659779189
958,374597.33651900647
1268,335643.2045005982
1367,0.0
2,1, 1,14, 0,22, 0.00,15.00,Tuesday
9,799380.6252450668
21,427500.0
57,337500.0
515,491282.0945228488
958,371880.6252450668
1268,335643.2045005982
1367,0.0
2,1, 1,14, 0,22,15.00,30.00,Tuesday
9,799380.6252450668
21,427500.0
57,337500.0
515,459942.3879669498
958,371880.6252450668
1268,335643.2045005982
1367,0.0
2,1, 1,14, 0,22,30.00,45.00,Tuesday
9,799380.6252450668
21,427500.0
57,337500.0
515,436226.6296408334
958,371880.6252450668
1268,335643.2045005982
1367,0.0
2,1, 1,14, 0,22,45.00,60.00,Tuesday
9,799380.6252450668
21,427500.0
57,337500.0
515,424817.70405309845
958,371880.6252450668
1268,335643.2045005982
1367,0.0
2,1, 1,14, 0,23, 0.00,15.00,Tuesday
9,799380.6252450668
21,427500.0
57,337500.0
515,421358.7465181232
958,371880.6252450668
1268,335643.2045005982
1367,0.0
2,1, 1,14, 0,23,15.00,30.00,Tuesday
9,799380.6252450668
21,427500.0
57,337500.0
515,422196.23488503275
958,371880.6252450668
1268,335643.2045005982
1367,0.0
2,1, 1,14, 0,23,30.00,45.00,Tuesday
9,799380.6252450668
21,427500.0
57,337500.0
515,429955.7738457156
958,371880.6252450668
1268,335643.2045005982
1367,0.0
2,1, 1,14, 0,23,45.00,60.00,Tuesday
9,799380.6252450668
21,427500.0
57,337500.0
515,436385.3750708896
958,371880.6252450668
1268,335643.2045005982
1367,0.0
2,1, 1,14, 0,24, 0.00,15.00,Tuesday
9,799380.6252450668
21,427500.0
57,337500.0
515,441034.21678330185
958,371880.6252450668
1268,335643.2045005982
1367,0.0
2,1, 1,14, 0,24,15.00,30.00,Tuesday
9,799380.6252450668
21,427500.0
57,337500.0
515,448104.70605460176
958,371880.6252450668
1268,335643.2045005982
1367,0.0
2,1, 1,14, 0,24,30.00,45.00,Tuesday
9,799380.6252450668
21,427500.0
57,337500.0
515,458163.8688819423
958,371880.6252450668
1268,335643.2045005982
1367,0.0
2,1, 1,14, 0,24,45.00,60.00,Tuesday
9,799380.6252450668
21,427500.0
57,337500.0
515,469052.85604362295
958,371880.6252450668
1268,335643.2045005982
1367,0.0
1,SUMMERDAY,  55.95,  -3.37,   0.00,  41.10
2,1, 7, 7, 0, 1, 0.00,15.00,Tuesday
9,463737.4207444687
21,427500.0
57,337500.0
515,67500.00000000001
958,36237.42074446866
1268,0.0
1367,0.0
2,1, 7, 7, 0, 1,15.00,30.00,Tuesday
9,463737.4207444687
21,427500.0
57,337500.0
515,67500.00000000001
958,36237.42074446866
1268,0.0
1367,0.0
2,1, 7, 7, 0, 1,30.00,45.00,Tuesday
9,463737.4207444687
21,427500.0
57,337500.0
515,67500.00000000001
958,36237.42074446866
1268,0.0
1367,0.0
2,1, 7, 7, 0, 1,45.00,60.00,Tuesday
9,463737.4207444687
21,427500.0
57,337500.0
515,67500.00000000001
958,36237.42074446866
1268,0.0
1367,0.0
2,1, 7, 7, 0, 2, 0.00,15.00,Tuesday
9,463737.4207444687
21,427500.0
57,337500.0
515,67500.00000000001
958,36237.42074446866
1268,0.0
1367,0.0
2,1, 7, 7, 0, 2,15.00,30.00,Tuesday
9,463737.4207444687
21,427500.0
57,337500.0
515,67500.00000000001
958,36237.42074446866
1268,0.0
1367,0.0
2,1, 7, 7, 0, 2,30.00,45.00,Tuesday
9,463737.4207444687
21,427500.0
57,337500.0
515,67500.00000000001
958,36237.42074446866
1268,0.0
1367,0.0
2,1, 7, 7, 0, 2,45.00,60.00,Tuesday
9,463737.4207444687
21,427500.0
57,337500.0
515,67500.00000000001
958,36237.42074446866
1268,0.0
1367,0.0
2,1, 7, 7, 0, 3, 0.00,15.00,Tuesday
9,463737.4207444687
21,427500.0
57,337500.0
515,67500.00000000001
958,36237.42074446866
1268,0.0
1367,0.0
2,1, 7, 7, 0, 3,15.00,30.00,Tuesday
9,463737.4207444687
21,427500.0
57,337500.0
515,67500.00000000001
958,36237.42074446866
1268,0.0
1367,0.0
2,1, 7, 7, 0, 3,30.00,45.00,Tuesday
9,463737.4207444687
21,427500.0
57,337500.0
515,67500.00000000001
958,36237.42074446866
1268,0.0
1367,0.0
2,1, 7, 7, 0, 3,45.00,60.00,Tuesday
9,463737.4207444687
21,427500.0
57,337500.0
515,67500.00000000001
958,36237.42074446866
1268,0.0
1367,0.0
2,1, 7, 7, 0, 4, 0.00,15.00,Tuesday
9,463737.4207444687
21,427500.0
57,337500.0
515,67500.00000000001
958,36237.42074446866
1268,0.0
1367,0.0
2,1, 7, 7, 0, 4,15.00,30.00,Tuesday
9,463737.4207444687
21,427500.0
57,337500.0
515,67500.00000000001
958,36237.42074446866
1268,0.0
1367,0.0
2,1, 7, 7, 0, 4,30.00,45.00,Tuesday
9,463737.4207444687
21,427500.0
57,337500.0
515,67500.00000000001
958,36237.42074446866
1268,0.0
1367,0.0
2,1, 7, 7, 0, 4,45.00,60.00,Tuesday
9,463737.4207444687
21,427500.0
57,337500.0
515,67500.00000000001
958,36237.42074446866
1268,0.0
1367,0.0
2,1, 7, 7, 0, 5, 0.00,15.00,Tuesday
9,463737.4207444687
21,427500.0
57,337500.0
515,67500.00000000001
958,36237.42074446866
1268,0.0
1367,0.0
2,1, 7, 7, 0, 5,15.00,30.00,Tuesday
9,463737.4207444687
21,427500.0
57,337500.0
515,67500.00000000001
958,36237.42074446866
1268,0.0
1367,0.0
2,1, 7, 7, 0, 5,30.00,45.00,Tuesday
9,463737.4207444687
21,427500.0
57,337500.0
515,67500.00000000001
958,36237.42074446866
1268,0.0
1367,0.0
2,1, 7, 7, 0, 5,45.00,60.00,Tuesday
9,463737.4207444687
21,427500.0
57,337500.0
515,67500.00000000001
958,36237.42074446866
1268,0.0
1367,0.0
2,1, 7, 7, 0, 6, 0.00,15.00,Tuesday
9,463737.4207444687
21,427500.0
57,337500.0
515,67500.00000000001
958,36237.42074446866
1268,0.0
1367,0.0
2,1, 7, 7, 0, 6,15.00,30.00,Tuesday
9,463737.4207444687
21,427500.0
57,337500.0
515,67500.00000000001
958,36237.42074446866
1268,0.0
1367,0.0
2,1, 7, 7, 0, 6,30.00,45.00,Tuesday
9,463737.4207444687
21,427500.0
57,337500.0
515,67500.00000000001
958,36237.42074446866
1268,0.0
1367,0.0
2,1, 7, 7, 0, 6,45.00,60.00,Tuesday
9,463737.4207444687
21,427500.0
57,337500.0
515,67500.00000000001
958,36237.42074446866
1268,0.0
1367,0.0
2,1, 7, 7, 0, 7, 0.00,15.00,Tuesday
9,1898000.2291439476
21,427500.0
57,337500.0
515,8530874.491292728
958,371880.6252450668
1268,335643.20450059813
1367,1098619.603898881
2,1, 7, 7, 0, 7,15.00,30.00,Tuesday
9,1885840.02831194
21,427500.0
57,337500.0
515,5100838.505367168
958,371880.6252450668
1268,335643.2045005982
1367,1086459.403066873
2,1, 7, 7, 0, 7,30.00,45.00,Tuesday
9,1906677.5592222016
21,427500.0
57,337500.0
515,4348452.5444423575
958,371880.6252450668
1268,335643.2045005982
1367,1107296.933977135
2,1, 7, 7, 0, 7,45.00,60.00,Tuesday
9,1928714.6955993904
21,427500.0
57,337500.0
515,3751386.8014262873
958,371880.6252450668
1268,335643.2045005982
1367,1129334.0703543236
2,1, 7, 7, 0, 8, 0.00,15.00,Tuesday
9,1956450.8790245764
21,427500.0
57,337500.0
515,3263229.0933048828
958,371880.6252450668
1268,335643.2045005982
1367,1157070.2537795093
2,1, 7, 7, 0, 8,15.00,30.00,Tuesday
9,1983090.187295052
21,427500.0
57,337500.0
515,2909638.943831217
958,371880.6252450668
1268,335643.2045005982
1367,1183709.5620499854
2,1, 7, 7, 0, 8,30.00,45.00,Tuesday
9,2011195.6800669793
21,427500.0
57,337500.0
515,2603876.397474199
958,371880.6252450668
1268,335643.2045005982
1367,1211815.0548219124
2,1, 7, 7, 0, 8,45.00,60.00,Tuesday
9,2039888.7463197727
21,427500.0
57,337500.0
515,2356695.9864930725
958,371880.6252450668
1268,335643.2045005982
1367,1240508.1210747059
2,1, 7, 7, 0, 9, 0.00,15.00,Tuesday
9,9605419.2909117
21,7875000.0
57,6075000.0
515,4285524.196960876
958,473445.8499147787
1268,335643.2045005982
1367,1256973.4409969219
2,1, 7, 7, 0, 9,15.00,30.00,Tuesday
9,9646956.223586757
21,7875000.0
57,6075000.0
515,4484390.508793857
958,473445.8499147787
1268,335643.2045005982
1367,1298510.3736719778
2,1, 7, 7, 0, 9,30.00,45.00,Tuesday
9,9679203.600614298
21,7875000.0
57,6075000.0
515,4569436.294405962
958,473445.8499147787
1268,335643.2045005982
1367,1330757.7506995206
2,1, 7, 7, 0, 9,45.00,60.00,Tuesday
9,9709849.518741684
21,7875000.0
57,6075000.0
515,4627268.261785423
958,473445.8499147787
1268,335643.2045005982
1367,1361403.6688269055
2,1, 7, 7, 0,10, 0.00,15.00,Tuesday
9,12444848.78852055
21,10462500.0
57,6412500.0
515,4920235.106502422
958,566389.1893648966
1268,335643.2045005982
1367,1415959.5991556542
2,1, 7, 7, 0,10,15.00,30.00,Tuesday
9,12561436.875308366
21,10462500.0
57,6412500.0
515,5770487.455090455
958,576084.9862679704
1268,345339.0014036719
1367,1522851.8890403965
2,1, 7, 7, 0,10,30.00,45.00,Tuesday
9,12687080.215375785
21,10462500.0
57,6412500.0
515,6206460.758930359
958,582284.0728497369
1268,351538.08798543847
1367,1642296.1425260468
2,1, 7, 7, 0,10,45.00,60.00,Tuesday
9,12770249.859357808
21,10462500.0
57,6412500.0
515,6192634.09772039
958,583008.1758820997
1268,352262.19101780123
1367,1724741.683475709
2,1, 7, 7, 0,11, 0.00,15.00,Tuesday
9,13272948.70176669
21,10800000.0
57,6750000.0
515,6614740.339134986
958,604982.7012102805
1268,359129.5964759304
1367,1867966.0005564084
2,1, 7, 7, 0,11,15.00,30.00,Tuesday
9,13431352.823889188
21,10800000.0
57,6750000.0
515,6964366.939712876
958,613522.6773499526
1268,367669.5726156025
1367,2017830.146539236
2,1, 7, 7, 0,11,30.00,45.00,Tuesday
9,13540007.173263205
21,10800000.0
57,6750000.0
515,7097534.947391119
958,618688.9280586643
1268,372835.8233243142
1367,2121318.245204542
2,1, 7, 7, 0,11,45.00,60.00,Tuesday
9,13629644.671276087
21,10800000.0
57,6750000.0
515,7183177.2534797145
958,623230.2377338638
1268,377377.13299951365
1367,2206414.4335422236
2,1, 7, 7, 0,12, 0.00,15.00,Tuesday
9,13197752.082060304
21,10462500.0
57,6412500.0
515,6696979.498240413
958,600285.0402174739
1268,369539.0553531754
1367,2134967.041842831
2,1, 7, 7, 0,12,15.00,30.00,Tuesday
9,13226777.294258827
21,10462500.0
57,6412500.0
515,6692663.962298404
958,601867.4727921512
1268,371121.48792785266
1367,2162409.821466677
2,1, 7, 7, 0,12,30.00,45.00,Tuesday
9,13251994.111786976
21,10462500.0
57,6412500.0
515,6666695.830550002
958,603166.0418971366
1268,372420.0570328381
1367,2186328.0698898397
2,1, 7, 7, 0,12,45.00,60.00,Tuesday
9,13273369.20703258
21,10462500.0
57,6412500.0
515,6633508.131735084
958,604279.1050027156
1268,373533.1201384172
1367,2206590.102029863
2,1, 7, 7, 0,13, 0.00,15.00,Tuesday
9,11955384.173039205
21,9450000.0
57,5400000.0
515,5504247.98622614
958,544345.942236427
1268,354583.97843710904
1367,1961038.2308027775
2,1, 7, 7, 0,13,15.00,30.00,Tuesday
9,11940505.066042313
21,9450000.0
57,5400000.0
515,5418529.283954926
958,543405.8554784972
1268,353643.8916791793
1367,1947099.2105638161
2,1, 7, 7, 0,13,30.00,45.00,Tuesday
9,11942985.030878726
21,9450000.0
57,5400000.0
515,5349455.218131444
958,543389.8998334089
1268,353627.936034091
1367,1949595.1310453163
2,1, 7, 7, 0,13,45.00,60.00,Tuesday
9,11948697.28027107
21,9450000.0
57,5400000.0
515,5305167.791607218
958,543622.9425423588
1268,353860.97874304076
1367,1955074.337728709
2,1, 7, 7, 0,14, 0.00,15.00,Tuesday
9,12897908.549785681
21,10125000.0
57,6075000.0
515,6192229.7533669025
958,587693.8288905344
1268,371316.75148519664
1367,2185214.720895147
2,1, 7, 7, 0,14,15.00,30.00,Tuesday
9,12922472.498197589
21,10125000.0
57,6075000.0
515,6225443.087122508
958,590045.4992484706
1268,373668.42184313294
1367,2207426.9989491184
2,1, 7, 7, 0,14,30.00,45.00,Tuesday
9,12948582.117326178
21,10125000.0
57,6075000.0
515,6258530.900944804
958,591665.0183860102
1268,375287.94098067255
1367,2231917.0989401676
2,1, 7, 7, 0,14,45.00,60.00,Tuesday
9,12981113.598523684
21,10125000.0
57,6075000.0
515,6281314.087479316
958,593222.4874147628
1268,376845.41000942513
1367,2262891.1111089215
2,1, 7, 7, 0,15, 0.00,15.00,Tuesday
9,13309010.903769223
21,10350000.0
57,6750000.0
515,6596012.32198317
958,609199.5041319425
1268,383324.0251089448
1367,2349811.39963728
2,1, 7, 7, 0,15,15.00,30.00,Tuesday
9,13381657.905119406
21,10350000.0
57,6750000.0
515,6699157.972165167
958,613718.0446838313
1268,387842.5656608335
1367,2417939.860435574
2,1, 7, 7, 0,15,30.00,45.00,Tuesday
9,13428042.231353967
21,10350000.0
57,6750000.0
515,6732639.896584587
958,616110.9127095381
1268,390235.4336865403
1367,2461931.31864443
2,1, 7, 7, 0,15,45.00,60.00,Tuesday
9,13468770.476197941
21,10350000.0
57,6750000.0
515,6758310.920491112
958,618243.5010922713
1268,392368.0220692735
1367,2500526.9751056707
2,1, 7, 7, 0,16, 0.00,15.00,Tuesday
9,12932711.708794782
21,9900000.0
57,6750000.0
515,6500205.708539113
958,592548.3233139166
1268,385351.8428830413
1367,2440163.385480866
2,1, 7, 7, 0,16,15.00,30.00,Tuesday
9,12948373.567535993
21,9900000.0
57,6750000.0
515,6491699.264567726
958,593320.1932494972
1268,386123.7128186219
1367,2455053.3742864947
2,1, 7, 7, 0,16,30.00,45.00,Tuesday
9,12970403.529818151
21,9900000.0
57,6750000.0
515,6494015.105141057
958,594493.7748986555
1268,387297.2944677801
1367,2475909.7549194964
2,1, 7, 7, 0,16,45.00,60.00,Tuesday
9,12991431.624354022
21,9900000.0
57,6750000.0
515,6500412.194631675
958,595687.6628525327
1268,388491.1824216574
1367,2495743.961501488
2,1, 7, 7, 0,17, 0.00,15.00,Tuesday
9,11878596.465116696
21,9000000.0
57,6750000.0
515,5988392.531389069
958,547608.6859453412
1268,374089.0914942131
1367,2330987.779171355
2,1, 7, 7, 0,17,15.00,30.00,Tuesday
9,11879558.832724024
21,9000000.0
57,6750000.0
515,5974107.465628398
958,547847.3721891158
1268,374327.77773798775
1367,2331711.460534909
2,1, 7, 7, 0,17,30.00,45.00,Tuesday
9,11903495.01046508
21,9000000.0
57,6750000.0
515,5989802.846565491
958,549207.5248195766
1268,375687.93036844855
1367,2354287.485645504
2,1, 7, 7, 0,17,45.00,60.00,Tuesday
9,11920541.897332119
21,9000000.0
57,6750000.0
515,5988394.444036867
958,549931.9593274874
1268,376412.3648763593
1367,2370609.9380046315
2,1, 7, 7, 0,18, 0.00,15.00,Tuesday
9,11941283.57298952
21,9000000.0
57,6750000.0
515,5978616.830355221
958,550308.7977933328
1268,376789.2033422047
1367,2390974.7751961867
2,1, 7, 7, 0,18,15.00,30.00,Tuesday
9,11972060.34187715
21,9000000.0
57,6750000.0
515,6003935.951313724
958,551486.9310626817
1268,377967.3366115536
1367,2420573.4108144683
2,1, 7, 7, 0,18,30.00,45.00,Tuesday
9,11997384.924200924
21,9000000.0
57,6750000.0
515,6021424.627422065
958,552456.4711253729
1268,378936.8766742448
1367,2444928.453075552
2,1, 7, 7, 0,18,45.00,60.00,Tuesday
9,12006369.933367092
21,9000000.0
57,6750000.0
515,6020477.248283088
958,552446.8930006364
1268,378927.2985495082
1367,2453923.040366456
2,1, 7, 7, 0,19, 0.00,15.00,Tuesday
9,7722369.157743708
21,5400000.0
57,4050000.0
515,4231586.048926656
958,422998.73686886986
1268,342153.9961790787
1367,1899370.420874839
2,1, 7, 7, 0,19,15.00,30.00,Tuesday
9,7666139.998321795
21,5400000.0
57,4050000.0
515,4235183.357884928
958,423544.8921008412
1268,342700.15141105006
1367,1842595.1062209536
2,1, 7, 7, 0,19,30.00,45.00,Tuesday
9,7669525.598890525
21,5400000.0
57,4050000.0
515,4166573.466211461
958,423378.8723451197
1268,342534.13165532856
1367,1846146.726545406
2,1, 7, 7, 0,19,45.00,60.00,Tuesday
9,7664013.836008337
21,5400000.0
57,4050000.0
515,4035060.952727597
958,422699.2893961136
1268,341854.54870632244
1367,1841314.546612224
2,1, 7, 7, 0,20, 0.00,15.00,Tuesday
9,4864437.082200061
21,2700000.0
57,1350000.0
515,3953914.9295559544
958,385263.5647613742
1268,338647.1592253158
1367,1779173.517438687
2,1, 7, 7, 0,20,15.00,30.00,Tuesday
9,4818254.964758262
21,2700000.0
57,1350000.0
515,3682977.1522381622
958,383917.26925459696
1268,337300.86371853855
1367,1734337.6955036656
2,1, 7, 7, 0,20,30.00,45.00,Tuesday
9,4770968.429959444
21,2700000.0
57,1350000.0
515,3412361.1998850126
958,382479.23482209473
1268,335862.8292860363
1367,1688489.195137349
2,1, 7, 7, 0,20,45.00,60.00,Tuesday
9,4739067.01911886
21,2700000.0