Program Version,EnergyPlus, Version 23.2.0-7636e6b3e9, YMD=2026.07.21 15:44
1,5,Environment Title[],Latitude[deg],Longitude[deg],Time Zone[],Elevation[m]
2,8,Day of Simulation[],Month[],Day of Month[],DST Indicator[1=yes 0=no],Hour[],StartMinute[],EndMinute[],DayType
3,5,Cumulative Day of Simulation[],Month[],Day of Month[],DST Indicator[1=yes 0=no],DayType  ! When Daily Report Variables Requested
4,2,Cumulative Days of Simulation[],Month[]  ! When Monthly Report Variables Requested
5,1,Cumulative Days of Simulation[] ! When Run Period Report Variables Requested
6,1,Calendar Year of Simulation[] ! When Annual Report Variables Requested
7,1,Environment,Site Outdoor Air Drybulb Temperature [C] !TimeStep
450,1,PLENUM-1,Zone Mean Air Temperature [C] !TimeStep
451,1,SPACE1-1,Zone Mean Air Temperature [C] !TimeStep
452,1,SPACE2-1,Zone Mean Air Temperature [C] !TimeStep
453,1,SPACE3-1,Zone Mean Air Temperature [C] !TimeStep
454,1,SPACE4-1,Zone Mean Air Temperature [C] !TimeStep
455,1,SPACE5-1,Zone Mean Air Temperature [C] !TimeStep
900,1,TRANSFORMER 1,Transformer Efficiency [] !TimeStep
901,1,TRANSFORMER 1,Transformer Input Electricity Rate [W] !TimeStep
902,1,TRANSFORMER 1,Transformer Input Electricity Energy [J] !TimeStep
903,1,TRANSFORMER 1,Transformer Output Electricity Rate [W] !TimeStep
904,1,TRANSFORMER 1,Transformer Output Electricity Energy [J] !TimeStep
905,1,TRANSFORMER 1,Transformer No Load Loss Rate [W] !TimeStep
906,1,TRANSFORMER 1,Transformer No Load Loss Energy [J] !TimeStep
907,1,TRANSFORMER 1,Transformer Load Loss Rate [W] !TimeStep
908,1,TRANSFORMER 1,Transformer Load Loss Energy [J] !TimeStep
909,1,TRANSFORMER 1,Transformer Thermal Loss Rate [W] !TimeStep
910,1,TRANSFORMER 1,Transformer Thermal Loss Energy [J] !TimeStep
911,1,TRANSFORMER 1,Transformer Distribution Electricity Loss Energy [J] !TimeStep
End of Data Dictionary
1,WINTERDAY,  55.95,  -3.37,   0.00,  41.10
2,1, 1,14, 0, 1, 0.00,15.00,Tuesday
7,3.5
450,17.85288678344198
451,17.941716236519447
452,18.280112656701387
453,17.97447323619312
454,18.2685641411161
455,19.476794140868122
900,0.9218578895654046
901,515.2638008271874
902,463737.4207444687
903,475.0
904,427500.0
905,39.97461928934014
906,35977.15736040613
907,0.28918153784726547
908,260.26338406253893
909,40.263800827187424
910,36237.42074446868
911,36237.42074446866
2,1, 1,14, 0, 1,15.00,30.00,Tuesday
7,3.5999999999999996
450,17.742377125022358
451,17.995073859544046
452,18.26546499113441
453,18.011979342748592
454,18.25557018005719
455,19.445775620942026
900,0.9218578895654046
901,515.2638008271874
902,463737.4207444687
903,475.0
904,427500.0
905,39.97461928934014
906,35977.15736040613
907,0.28918153784726547
908,260.26338406253893
909,40.263800827187424
910,36237.42074446868
911,36237.42074446866
2,1, 1,14, 0, 1,30.00,45.00,Tuesday
7,3.6999999999999997
450,17.644442609952527
451,18.0254498259067
452,18.240234164593137
453,18.02748241134671
454,18.231844854600133
455,19.41753162075273
900,0.9218578895654046
901,515.2638008271874
902,463737.4207444687
903,475.0
904,427500.0
905,39.97461928934014
906,35977.15736040613
907,0.28918153784726547
908,260.26338406253893
909,40.263800827187424
910,36237.42074446868
911,36237.42074446866
2,1, 1,14, 0, 1,45.00,60.00,Tuesday
7,3.8
450,17.558374358879693
451,18.02173775004611
452,18.203972203841076
453,18.0126563218801
454,18.196887901041784
455,19.393664866225713
900,0.9218578895654046
901,515.2638008271874
902,463737.4207444687
903,475.0
904,427500.0
905,39.97461928934014
906,35977.15736040613
907,0.28918153784726547
908,260.26338406253893
909,40.263800827187424
910,36237.42074446868
911,36237.42074446866
2,1, 1,14, 0, 2, 0.00,15.00,Tuesday
7,3.8499999999999996
450,17.477102251533985
451,18.008965270668796
452,18.170169265437966
453,17.99342603768585
454,18.16420800056268
455,19.371705526119847
900,0.9218578895654046
901,515.2638008271874
902,463737.4207444687
903,475.0
904,427500.0
905,39.97461928934014
906,35977.15736040613
907,0.28918153784726547
908,260.26338406253893
909,40.263800827187424
910,36237.42074446868
911,36237.42074446866
2,1, 1,14, 0, 2,15.00,30.00,Tuesday
7,3.9
450,17.401121937070567
451,17.997906730223555
452,18.141226240247438
453,17.978156908614594
454,18.136295149362414
455,19.351222896701675
900,0.9218578895654046
901,515.2638008271874
902,463737.4207444687
903,475.0
904,427500.0
905,39.97461928934014
906,35977.15736040613
907,0.28918153784726547
908,260.26338406253893
909,40.263800827187424
910,36237.42074446868
911,36237.42074446866
2,1, 1,14, 0, 2,30.00,45.00,Tuesday
7,3.95
450,17.331428800306448
451,17.988441448128764
452,18.115460936767413
453,17.965404451889196
454,18.11150076303222
455,19.33253779213057
900,0.9218578895654046
901,515.2638008271874
902,463737.4207444687
903,475.0
904,427500.0
905,39.97461928934014
906,35977.15736040613
907,0.28918153784726547
908,260.26338406253893
909,40.263800827187424
910,36237.42074446868
911,36237.42074446866
2,1, 1,14, 0, 2,45.00,60.00,Tuesday
7,4.0
450,17.26774603071762
451,17.979586034532684
452,18.092065263660295
453,17.95380457788169
454,18.08901068640955
455,19.31581126138308
900,0.9218578895654046
901,515.2638008271874
902,463737.4207444687
903,475.0
904,427500.0
905,39.97461928934014
906,35977.15736040613
907,0.28918153784726547
908,260.26338406253893
909,40.263800827187424
910,36237.42074446868
911,36237.42074446866
2,1, 1,14, 0, 3, 0.00,15.00,Tuesday
7,3.925
450,17.20940414906002
451,17.964353297299226
452,18.06558552888722
453,17.93718848242061
454,18.063351634472905
455,19.29487881160457
900,0.9218578895654046
901,515.2638008271874
902,463737.4207444687
903,475.0
904,427500.0
905,39.97461928934014
906,35977.15736040613
907,0.28918153784726547
908,260.26338406253893
909,40.263800827187424
910,36237.42074446868
911,36237.42074446866
2,1, 1,14, 0, 3,15.00,30.00,Tuesday
7,3.85
450,17.155100242045467
451,17.944817957356854
452,18.037584723882354
453,17.917011432303287
454,18.036074209858484
455,19.27106755683287
900,0.9218578895654046
901,515.2638008271874
902,463737.4207444687
903,475.0
904,427500.0
905,39.97461928934014
906,35977.15736040613
907,0.28918153784726547
908,260.26338406253893
909,40.263800827187424
910,36237.42074446868
911,36237.42074446866
2,1, 1,14, 0, 3,30.00,45.00,Tuesday
7,3.7750000000000004
450,17.106172812344745
451,17.92443282347789
452,18.00993289088391
453,17.895862597936627
454,18.009065140034995
455,19.24685123294816
900,0.9218578895654046
901,515.2638008271874
902,463737.4207444687
903,475.0
904,427500.0
905,39.97461928934014
906,35977.15736040613
907,0.28918153784726547
908,260.26338406253893
909,40.263800827187424
910,36237.42074446868
911,36237.42074446866
2,1, 1,14, 0, 3,45.00,60.00,Tuesday
7,3.7
450,17.059664634976116
451,17.903585852494565
452,17.98325844332489
453,17.874797862931377
454,17.982960294542305
455,19.223328486684245
900,0.9218578895654046
901,515.2638008271874
902,463737.4207444687
903,475.0
904,427500.0
905,39.97461928934014
906,35977.15736040613
907,0.28918153784726547
908,260.26338406253893
909,40.263800827187424
910,36237.42074446868
911,36237.42074446866
2,1, 1,14, 0, 4, 0.00,15.00,Tuesday
7,3.6500000000000004
450,17.01673427198402
451,17.885154658263527
452,17.95978775434335
453,17.857083491039443
454,17.960014587144983
455,19.203417577511935
900,0.9218578895654046
901,515.2638008271874
902,463737.4207444687
903,475.0
904,427500.0
905,39.97461928934014
906,35977.15736040613
907,0.28918153784726547
908,260.26338406253893
909,40.263800827187424
910,36237.42074446868
911,36237.42074446866
2,1, 1,14, 0, 4,15.00,30.00,Tuesday
7,3.6
450,16.975520962678154
451,17.868533201122872
452,17.938311342891662
453,17.84109504062756
454,17.939028016447256
455,19.186307682691645
900,0.9218578895654046
901,515.2638008271874
902,463737.4207444687
903,475.0
904,427500.0
905,39.97461928934014
906,35977.15736040613
907,0.28918153784726547
908,260.26338406253893
909,40.263800827187424
910,36237.42074446868
911,36237.42074446866
2,1, 1,14, 0, 4,30.00,45.00,Tuesday
7,3.55
450,16.936051713447366
451,17.85262887515901
452,17.918035654806562
453,17.825690681630824
454,17.91921086660118
455,19.17064058750048
900,0.9218578895654046
901,515.2638008271874
902,463737.4207444687
903,475.0
904,427500.0
905,39.97461928934014
906,35977.15736040613
907,0.28918153784726547
908,260.26338406253893
909,40.263800827187424
910,36237.42074446868
911,36237.42074446866
2,1, 1,14, 0, 4,45.00,60.00,Tuesday
7,3.5
450,16.898336075757065
451,17.837158644090565
452,17.898427181497865
453,17.810658013907794
454,17.900033108409872
455,19.155857301109812
900,0.9218578895654046
901,515.2638008271874
902,463737.4207444687
903,475.0
904,427500.0
905,39.97461928934014
906,35977.15736040613
907,0.28918153784726547
908,260.26338406253893
909,40.263800827187424
910,36237.42074446868
911,36237.42074446866
2,1, 1,14, 0, 5, 0.00,15.00,Tuesday
7,3.55
450,16.862270814957157
451,17.826811186213355
452,17.883587282032693
453,17.8006533590419
454,17.88561124158552
455,19.145143543238188
900,0.9218578895654046
901,515.2638008271874
902,463737.4207444687
903,475.0
904,427500.0
905,39.97461928934014
906,35977.15736040613
907,0.28918153784726547
908,260.26338406253893
909,40.263800827187424
910,36237.42074446868
911,36237.42074446866
2,1, 1,14, 0, 5,15.00,30.00,Tuesday
7,3.6
450,16.828647820224173
451,17.82066132550158
452,17.872518703844246
453,17.79494496982369
454,17.874962312977864
455,19.13782092185173
900,0.9218578895654046
901,515.2638008271874
902,463737.4207444687
903,475.0
904,427500.0
905,39.97461928934014
906,35977.15736040613
907,0.28918153784726547
908,260.26338406253893
909,40.263800827187424
910,36237.42074446868
911,36237.42074446866
2,1, 1,14, 0, 5,30.00,45.00,Tuesday
7,3.6500000000000004
450,16.79709720495111
451,17.81668168316938
452,17.863514346567904
453,17.7915348248113
454,17.86637326545021
455,19.132286531066924
900,0.9218578895654046
901,515.2638008271874
902,463737.4207444687
903,475.0
904,427500.0
905,39.97461928934014
906,35977.15736040613
907,0.28918153784726547
908,260.26338406253893
909,40.263800827187424
910,36237.42074446868
911,36237.42074446866
2,1, 1,14, 0, 5,45.00,60.00,Tuesday
7,3.7
450,16.767560739588077
451,17.81412570193225
452,17.85605105375336
453,17.78963343077603
454,17.859314751593416
455,19.127888376330812
900,0.9218578895654046
901,515.2638008271874
902,463737.4207444687
903,475.0
904,427500.0
905,39.97461928934014
906,35977.15736040613
907,0.28918153784726547
908,260.26338406253893
909,40.263800827187424
910,36237.42074446868
911,36237.42074446866
2,1, 1,14, 0, 6, 0.00,15.00,Tuesday
7,3.8500000000000005
450,16.740096496291727
451,17.80953471668104
452,17.84733055622867
453,17.78599831349395
454,17.850960101700462
455,19.118964504957308
900,0.9218578895654046
901,515.2638008271874
902,463737.4207444687
903,475.0
904,427500.0
905,39.97461928934014
906,35977.15736040613
907,0.28918153784726547
908,260.26338406253893
909,40.263800827187424
910,36237.42074446868
911,36237.42074446866
2,1, 1,14, 0, 6,15.00,30.00,Tuesday
7,4.0
450,16.714331754627676
451,17.804358691666184
452,17.838407213146446
453,17.78160375371792
454,17.842363541272523
455,19.10694331904074
900,0.9218578895654046
901,515.2638008271874
902,463737.4207444687
903,475.0
904,427500.0
905,39.97461928934014
906,35977.15736040613
907,0.28918153784726547
908,260.26338406253893
909,40.263800827187424
910,36237.42074446868
911,36237.42074446866
2,1, 1,14, 0, 6,30.00,45.00,Tuesday
7,4.1499999999999995
450,16.69020000715202
451,17.79953605003363
452,17.830375137998754
453,17.777744065972456
454,17.83463290793753
455,19.09425333191509
900,0.9218578895654046
901,515.2638008271874
902,463737.4207444687
903,475.0
904,427500.0
905,39.97461928934014
906,35977.15736040613
907,0.28918153784726547
908,260.26338406253893
909,40.263800827187424
910,36237.42074446868
911,36237.42074446866
2,1, 1,14, 0, 6,45.00,60.00,Tuesday
7,4.3
450,16.667904463180147
451,17.795773049986504
452,17.8234637847046
453,17.774791785429308
454,17.828006094990624
455,19.08184539828447
900,0.9218578895654046
901,515.2638008271874
902,463737.4207444687
903,475.0
904,427500.0
905,39.97461928934014
906,35977.15736040613
907,0.28918153784726547
908,260.26338406253893
909,40.263800827187424
910,36237.42074446868
911,36237.42074446866
2,1, 1,14, 0, 7, 0.00,15.00,Tuesday
7,4.5249999999999995
450,16.774572214215638
451,19.905005003892164
452,20.144556935586817
453,19.77038629253615
454,20.1368184320983
455,20.184608651062867
900,0.9218578895654046
901,515.2638008271874
902,463737.4207444686
903,475.0
904,427500.0
905,39.97461928934013
906,35977.15736040613
907,0.28918153784726547
908,260.26338406253893
909,40.263800827187424
910,36237.42074446868
911,36237.42074446866
2,1, 1,14, 0, 7,15.00,30.00,Tuesday
7,4.75
450,17.063841814521933
451,21.24227393583465
452,21.49603763012203
453,21.03053571194995
454,21.4921802214346
455,21.00060944358576
900,0.9218578895654045
901,515.2638008271874
902,463737.42074446875
903,474.9999999999999
904,427500.0
905,39.97461928934013
906,35977.15736040613
907,0.28918153784726547
908,260.26338406253893
909,40.26380082718742
910,36237.42074446868
911,36237.42074446866
2,1, 1,14, 0, 7,30.00,45.00,Tuesday
7,4.9750000000000005
450,17.337295159120526
451,21.984291252045985
452,22.085120525131344
453,21.833908547803258
454,22.08522611002417
455,21.57277379705455
900,0.9218578895654046
901,515.2638008271874
902,463737.4207444687
903,475.0
904,427500.0
905,39.97461928934014
906,35977.15736040613
907,0.28918153784726547
908,260.26338406253893
909,40.263800827187424
910,36237.42074446868
911,36237.42074446866
2,1, 1,14, 0, 7,45.00,60.00,Tuesday
7,5.2
450,17.55819813686195
451,22.19596337886794
452,22.194266384721217
453,22.14562550700449
454,22.196062901891025
455,21.93490003157271
900,0.9218578895654046
901,515.2638008271874
902,463737.4207444687
903,475.0
904,427500.0
905,39.97461928934014
906,35977.15736040613
907,0.28918153784726547
908,260.26338406253893
909,40.263800827187424
910,36237.42074446868
911,36237.42074446866
2,1, 1,14, 0, 8, 0.00,15.00,Tuesday
7,5.325
450,17.74402682295859
451,22.199120659297737
452,22.19890916206231
453,22.198211423816865
454,22.201841801587534
455,22.197449584403838
900,0.9218578895654046
901,515.2638008271874
902,463737.4207444687
903,475.0
904,427500.0
905,39.97461928934014
906,35977.15736040613
907,0.28918153784726547
908,260.26338406253893
909,40.263800827187424
910,36237.42074446868
911,36237.42074446866
2,1, 1,14, 0, 8,15.00,30.00,Tuesday
7,5.45
450,17.877234958547547
451,22.198228246813432
452,22.199315083453236
453,22.198808152177524
454,22.20292910512806
455,22.199174983817617
900,0.9218578895654046
901,515.2638008271874
902,463737.4207444687
903,475.0
904,427500.0
905,39.97461928934014
906,35977.15736040613
907,0.28918153784726547
908,260.26338406253893
909,40.263800827187424
910,36237.42074446868
911,36237.42074446866
2,1, 1,14, 0, 8,30.00,45.00,Tuesday
7,5.575
450,17.996182718632376
451,22.200105695776774
452,22.198810657076585
453,22.2000089985084
454,22.202426027250596
455,22.19873055349145
900,0.9218578895654046
901,515.2638008271874
902,463737.4207444687
903,475.0
904,427500.0
905,39.97461928934014
906,35977.15736040613
907,0.28918153784726547
908,260.26338406253893
909,40.263800827187424
910,36237.42074446868
911,36237.42074446866
2,1, 1,14, 0, 8,45.00,60.00,Tuesday
7,5.7
450,18.10920531474388
451,22.197814734564734
452,22.199729816005423
453,22.20053327427292
454,22.202343970746476
455,22.199976223627978
900,0.9218578895654046
901,515.2638008271874
902,463737.4207444687
903,475.0
904,427500.0
905,39.97461928934014
906,35977.15736040613
907,0.28918153784726547
908,260.26338406253893
909,40.263800827187424
910,36237.42074446868
911,36237.42074446866
2,1, 1,14, 0, 9, 0.00,15.00,Tuesday
7,5.675000000000001
450,18.524333520332455
451,22.2002812851156
452,22.199799515525818
453,22.200136815387516
454,22.201109532896815
455,22.199957904076875
900,0.9828021915037373
901,8903.1140504602
902,8012802.645414181
903,8750.0
904,7875000.0
905,39.97461928934014
906,35977.15736040613
907,113.13943117086045
908,101825.4880537744
909,153.11405046020081
910,137802.64541418073
911,137802.64541418053
2,1, 1,14, 0, 9,15.00,30.00,Tuesday
7,5.65
450,18.875645866927
451,22.200773784239566
452,22.20122137047737
453,22.200275337149897
454,22.200114972560307
455,22.275284275771167
900,0.9828021915037373
901,8903.1140504602
902,8012802.645414181
903,8750.0
904,7875000.0
905,39.97461928934014
906,35977.15736040613
907,113.13943117086045
908,101825.4880537744
909,153.11405046020081
910,137802.64541418073
911,137802.64541418053
2,1, 1,14, 0, 9,30.00,45.00,Tuesday
7,5.624999999999999
450,19.11870685309265
451,22.20158855875408
452,22.202333266688623
453,22.200859617943422
454,22.201976390301372
455,22.412991265560787
900,0.9828021915037373
901,8903.1140504602
902,8012802.645414181
903,8750.0
904,7875000.0
905,39.97461928934014
906,35977.15736040613
907,113.13943117086045
908,101825.4880537744
909,153.11405046020081
910,137802.64541418073
911,137802.64541418053
2,1, 1,14, 0, 9,45.00,60.00,Tuesday
7,5.6
450,19.3088487049308
451,22.20099759533365
452,22.203699765784016
453,22.20112611023803
454,22.19995876775782
455,22.559871594855704
900,0.9828021915037373
901,8903.1140504602
902,8012802.645414181
903,8750.0
904,7875000.0
905,39.97461928934014
906,35977.15736040613
907,113.13943117086045
908,101825.4880537744
909,153.11405046020081
910,137802.64541418073
911,137802.64541418053
2,1, 1,14, 0,10, 0.00,15.00,Tuesday
7,5.449999999999999
450,19.509048721126966
451,22.20120095736349
452,22.200638248415395
453,22.200741174144003
454,22.202140379371837
455,22.965504958215373
900,0.9784213338783279
901,11881.384427626997
902,10693245.984864298
903,11625.0
904,10462500.0
905,39.97461928934014
906,35977.15736040613
907,216.40980833765812
908,194768.8275038923
909,256.3844276269974
910,230745.98486429767
911,230745.98486429846
2,1, 1,14, 0,10,15.00,30.00,Tuesday
7,5.3
450,19.74328652698258
451,22.200217528466478
452,22.31227287379827
453,22.200963959982055
454,22.200588426757903
455,23.39998774583143
900,0.9784213338783279
901,11881.384427626997
902,10693245.984864298
903,11625.0
904,10462500.0
905,39.97461928934014
906,35977.15736040613
907,216.40980833765812
908,194768.8275038923
909,256.3844276269974
910,230745.98486429767
911,230745.98486429846
2,1, 1,14, 0,10,30.00,45.00,Tuesday
7,5.15
450,19.95053422989694
451,22.292256879911676
452,22.576700807955255
453,22.20087396105936
454,22.20319785854295
455,23.639580436423213
900,0.9784213338783279
901,11881.384427626997
902,10693245.984864298
903,11625.0
904,10462500.0
905,39.97461928934014
906,35977.15736040613
907,216.40980833765812
908,194768.8275038923
909,256.3844276269974
910,230745.98486429767
911,230745.98486429846
2,1, 1,14, 0,10,45.00,60.00,Tuesday
7,5.0
450,20.127935210528868
451,22.46673920746793
452,22.86498518905496
453,22.200478564381218
454,22.200885379484895
455,23.745246265150218
900,0.9784213338783279
901,11881.384427626997
902,10693245.984864298
903,11625.0
904,10462500.0
905,39.97461928934014
906,35977.15736040613
907,216.40980833765812
908,194768.8275038923
909,256.3844276269974
910,230745.98486429767
911,230745.98486429846
2,1, 1,14, 0,11, 0.00,15.00,Tuesday
7,4.925
450,20.34718097535737
451,22.710289326923448
452,23.13052636173749
453,22.20129651275241
454,22.201122667117694
455,23.843663829129532
900,0.977742497351429
901,12273.1701163715
902,11045853.10473435
903,12000.0
904,10800000.0
905,39.97461928934014
906,35977.15736040613
907,233.19549708216002
908,209875.94737394401
909,273.1701163715006
910,245853.10473435058
911,245853.10473435014
2,1, 1,14, 0,11,15.00,30.00,Tuesday
7,4.85
450,20.55815788872229
451,22.956554644188103
452,23.323782670101096
453,22.207062792415535
454,22.20138528099372
455,23.893394472165973
900,0.977742497351429
901,12273.1701163715
902,11045853.10473435
903,12000.0
904,10800000.0
905,39.97461928934014
906,35977.15736040613
907,233.19549708216002
908,209875.94737394401
909,273.1701163715006
910,245853.10473435058
911,245853.10473435014
2,1, 1,14, 0,11,30.00,45.00,Tuesday
7,4.775
450,20.815885775870875
451,23.34586620338689
452,23.644028655038884
453,22.25984390330281
454,22.20106305331919
455,23.89916790464587
900,0.977742497351429
901,12273.1701163715
902,11045853.10473435
903,12000.0
904,10800000.0
905,39.97461928934014
906,35977.15736040613
907,233.19549708216002
908,209875.94737394401
909,273.1701163715006
910,245853.10473435058
911,245853.10473435014
2,1, 1,14, 0,11,45.00,60.00,Tuesday
7,4.7
450,21.037955303876007
451,23.68032433408106
452,23.831726478643134
453,22.31933746514858
454,22.200833847402038
455,23.899121396527285
900,0.977742497351429
901,12273.1701163715
902,11045853.10473435
903,12000.0
904,10800000.0
905,39.97461928934014
906,35977.15736040613
907,233.19549708216002
908,209875.94737394401
909,273.1701163715006
910,245853.10473435058
911,245853.10473435014
2,1, 1,14, 0,12, 0.00,15.00,Tuesday
7,4.675000000000001
450,21.208533768313465
451,23.857219865502685
452,23.813785856156873
453,22.24855345211686
454,22.199799445936133
455,23.898907286995634
900,0.9784213338783279
901,11881.384427626997
902,10693245.984864298
903,11625.0
904,10462500.0
905,39.97461928934014
906,35977.15736040613
907,216.40980833765812
908,194768.8275038923
909,256.3844276269974
910,230745.98486429767
911,230745.98486429846
2,1, 1,14, 0,12,15.00,30.00,Tuesday
7,4.65
450,21.391659550445954
451,23.895139597122917
452,23.839862982153047
453,22.202892019180098
454,22.201288390898924
455,23.898885349333423
900,0.9784213338783279
901,11881.384427626997
902,10693245.984864298
903,11625.0
904,10462500.0
905,39.97461928934014
906,35977.15736040613
907,216.40980833765812
908,194768.8275038923
909,256.3844276269974
910,230745.98486429767
911,230745.98486429846
2,1, 1,14, 0,12,30.00,45.00,Tuesday
7,4.625
450,21.589484009555065
451,23.89807363029194
452,23.891776004000842
453,22.236322172447228
454,22.20012939406154
455,23.898887641418877
900,0.9784213338783279
901,11881.384427626997
902,10693245.984864298
903,11625.0
904,10462500.0
905,39.97461928934014
906,35977.15736040613
907,216.40980833765812
908,194768.8275038923
909,256.3844276269974
910,230745.98486429767
911,230745.98486429846
2,1, 1,14, 0,12,45.00,60.00,Tuesday
7,4.6
450,21.782960082260956
451,23.898386218241335
452,23.89813207061973
453,22.29986037604393
454,22.201581166391183
455,23.898885157317192
900,0.9784213338783279
901,11881.384427626997
902,10693245.984864298
903,11625.0
904,10462500.0
905,39.97461928934014
906,35977.15736040613
907,216.40980833765812
908,194768.8275038923
909,256.3844276269974
910,230745.98486429767
911,230745.98486429846
2,1, 1,14, 0,13, 0.00,15.00,Tuesday
7,4.574999999999999
450,21.858048363416
451,23.89845882188621
452,23.721809232930223
453,22.20545078674792
454,22.202528684583772
455,23.853001652563943
900,0.9803146629022645
901,10710.846626443687
902,9639761.963799318
903,10500.0
904,9450000.0
905,39.97461928934014
906,35977.15736040613
907,170.87200715434648
908,153784.80643891182
909,210.84662644368655
910,189761.9637993179
911,189761.96379931795
2,1, 1,14, 0,13,15.00,30.00,Tuesday
7,4.55
450,21.955375076953555
451,23.898603777890653
452,23.516718531499496
453,22.2013999360973
454,22.20243109480187
455,23.82288081832589
900,0.9803146629022645
901,10710.846626443687
902,9639761.963799318
903,10500.0
904,9450000.0
905,39.97461928934014
906,35977.15736040613
907,170.87200715434648
908,153784.80643891182
909,210.84662644368655
910,189761.9637993179
911,189761.96379931795
2,1, 1,14, 0,13,30.00,45.00,Tuesday
7,4.525
450,22.08251407032749
451,23.898783990521334
452,23.433965234291804
453,22.201621461353927
454,22.199935190210798
455,23.84437862952026
900,0.9803146629022645
901,10710.846626443687
902,9639761.963799318
903,10500.0
904,9450000.0
905,39.97461928934014
906,35977.15736040613
907,170.87200715434648
908,153784.80643891182
909,210.84662644368655
910,189761.9637993179
911,189761.96379931795
2,1, 1,14, 0,13,45.00,60.00,Tuesday
7,4.5
450,22.212309913169143
451,23.89894126208493
452,23.38370671425414
453,22.200767353796994
454,22.200672072537145
455,23.89446861292779
900,0.9803146629022645
901,10710.846626443687
902,9639761.963799318
903,10500.0
904,9450000.0
905,39.97461928934014
906,35977.15736040613
907,170.87200715434648
908,153784.80643891182
909,210.84662644368655
910,189761.9637993179
911,189761.96379931795
2,1, 1,14, 0,14, 0.00,15.00,Tuesday
7,4.425
450,22.424154757228003
451,23.899251408139083
452,23.495969661471825
453,22.350656825179218
454,22.200033425295377
455,23.898697913642636
900,0.9790765701912084
901,11490.41897489482
902,10341377.077405337
903,11250.0
904,10125000.0
905,39.97461928934014
906,35977.15736040613
907,200.44435560547947
908,180399.92004493152
909,240.41897489481926
910,216377.07740533733
911,216377.07740533765
2,1, 1,14, 0,14,15.00,30.00,Tuesday
7,4.35
450,22.59011854670083
451,23.899219933230388
452,23.48936426185002
453,22.464331248395688
454,22.200821954621457
455,23.89898207417233
900,0.9790765701912084
901,11490.41897489482
902,10341377.077405337
903,11250.0
904,10125000.0
905,39.97461928934014
906,35977.15736040613
907,200.44435560547947
908,180399.92004493152
909,240.41897489481926
910,216377.07740533733
911,216377.07740533765
2,1, 1,14, 0,14,30.00,45.00,Tuesday
7,4.275
450,22.714631107550325
451,23.899263557958452
452,23.335494019817908
453,22.491360220125483
454,22.200714504066653
455,23.899020148787756
900,0.9790765701912084
901,11490.41897489482
902,10341377.077405337
903,11250.0
904,10125000.0
905,39.97461928934014
906,35977.15736040613
907,200.44435560547947
908,180399.92004493152
909,240.41897489481926
910,216377.07740533733
911,216377.07740533765
2,1, 1,14, 0,14,45.00,60.00,Tuesday
7,4.2
450,22.815545856036465
451,23.899246820417332
452,23.12913788164787
453,22.47289347968196
454,22.202604761831413
455,23.89906086700734
900,0.9790765701912084
901,11490.41897489482
902,10341377.077405337
903,11250.0
904,10125000.0
905,39.97461928934014
906,35977.15736040613
907,200.44435560547947
908,180399.92004493152
909,240.41897489481926
910,216377.07740533733
911,216377.07740533765
2,1, 1,14, 0,15, 0.00,15.00,Tuesday
7,4.2
450,22.9464108889903
451,23.899294642276054
452,22.991358957530775
453,22.518360743937972
454,22.20098922664273
455,23.899006435750877
900,0.9786423847868655
901,11750.972754469998
902,10575875.479022998
903,11500.0
904,10350000.0
905,39.97461928934014
906,35977.15736040613
907,210.9981351806574
908,189898.32166259168
909,250.9727544699981
910,225875.4790229983
911,225875.47902299778
2,1, 1,14, 0,15,15.00,30.00,Tuesday
7,4.2
450,23.042771067988618
451,23.8992732661037
452,22.878628133410963
453,22.57806589181509
454,22.201593176078756
455,23.898988976405363
900,0.9786423847868655
901,11750.972754469998
902,10575875.479022998
903,11500.0
904,10350000.0
905,39.97461928934014
906,35977.15736040613
907,210.9981351806574
908,189898.32166259168
909,250.9727544699981
910,225875.4790229983
911,225875.47902299778
2,1, 1,14, 0,15,30.00,45.00,Tuesday
7,4.2
450,23.111739673673522
451,23.899224993848435
452,22.767960249025194
453,22.614940454166888
454,22.201646336863156
455,23.8989691519833
900,0.9786423847868655
901,11750.972754469998
902,10575875.479022998
903,11500.0
904,10350000.0
905,39.97461928934014
906,35977.15736040613
907,210.9981351806574
908,189898.32166259168
909,250.9727544699981
910,225875.4790229983
911,225875.47902299778
2,1, 1,14, 0,15,45.00,60.00,Tuesday
7,4.2
450,23.164901162994187
451,23.899197158954177
452,22.66004656501485
453,22.631162927892966
454,22.202297408758497
455,23.89895574050463
900,0.9786423847868655
901,11750.972754469998
902,10575875.479022998
903,11500.0
904,10350000.0
905,39.97461928934014
906,35977.15736040613
907,210.9981351806574
908,189898.32166259168
909,250.9727544699981
910,225875.4790229983
911,225875.47902299778
2,1, 1,14, 0,16, 0.00,15.00,Tuesday
7,4.2250000000000005
450,23.195249460655297
451,23.89916591967036
452,22.494264147213205
453,22.560832384123465
454,22.19969816313708
455,23.899043348467234
900,0.979500103630909
901,11230.21831158986
902,10107196.480430875
903,11000.0
904,9900000.0
905,39.97461928934014
906,35977.15736040613
907,190.24369230052133
908,171219.3230704692
909,230.2183115898606
910,207196.48043087454
911,207196.48043087532
2,1, 1,14, 0,16,15.00,30.00,Tuesday
7,4.25
450,23.206815938583635
451,23.89899634047258
452,22.33644215211007
453,22.48050321411595
454,22.200903341067793
455,23.899044600939916
900,0.979500103630909
901,11230.21831158986
902,10107196.480430875
903,11000.0
904,9900000.0
905,39.97461928934014
906,35977.15736040613
907,190.24369230052133
908,171219.3230704692
909,230.2183115898606
910,207196.48043087454
911,207196.48043087532
2,1, 1,14, 0,16,30.00,45.00,Tuesday
7,4.2749999999999995
450,23.19600596129823
451,23.89899889667548
452,22.21556550150485
453,22.4024956708409
454,22.201278280594682
455,23.89901549437967
900,0.979500103630909
901,11230.21831158986
902,10107196.480430875
903,11000.0
904,9900000.0
905,39.97461928934014
906,35977.15736040613
907,190.24369230052133
908,171219.3230704692
909,230.2183115898606
910,207196.48043087454
911,207196.48043087532
2,1, 1,14, 0,16,45.00,60.00,Tuesday
7,4.3
450,23.15859215864455
451,23.898932812835948
452,22.2049870604859
453,22.21915259967316
454,22.201556375644294
455,23.89890699671712
900,0.979500103630909
901,11230.21831158986
902,10107196.480430875
903,11000.0
904,9900000.0
905,39.97461928934014
906,35977.15736040613
907,190.24369230052133
908,171219.3230704692
909,230.2183115898606
910,207196.48043087454
911,207196.48043087532
2,1, 1,14, 0,17, 0.00,15.00,Tuesday
7,4.35
450,23.097819677558
451,23.60744324358543
452,22.204138755988247
453,22.202386481463645
454,22.202208803298745
455,23.89910717715075
900,0.9810847306026265
901,10192.799549390142
902,9173519.594451128
903,10000.0
904,9000000.0
905,39.97461928934014
906,35977.15736040613
907,152.82493010080225
908,137542.43709072203
909,192.7995493901417
910,173519.59445112752
911,173519.59445112813