Program Version,EnergyPlus, Version 23.2.0-7636e6b3e9, YMD=2026.07.21 17:04
1,5,Environment Title[],Latitude[deg],Longitude[deg],Time Zone[],Elevation[m]
2,8,Day of Simulation[],Month[],Day of Month[],DST Indicator[1=yes 0=no],Hour[],StartMinute[],EndMinute[],DayType
3,5,Cumulative Day of Simulation[],Month[],Day of Month[],DST Indicator[1=yes 0=no],DayType  ! When Daily Report Variables Requested
4,2,Cumulative Days of Simulation[],Month[]  ! When Monthly Report Variables Requested
5,1,Cumulative Days of Simulation[] ! When Run Period Report Variables Requested
6,1,Calendar Year of Simulation[] ! When Annual Report Variables Requested
7,1,Environment,Site Outdoor Air Drybulb Temperature [C] !TimeStep
8,1,Environment,Site Diffuse Solar Radiation Rate per Area [W/m2] !TimeStep
9,1,Environment,Site Direct Solar Radiation Rate per Area [W/m2] !TimeStep
10,1,Environment,Site Ground Temperature [C] !TimeStep
11,1,ZONE ONE,Zone Total Internal Radiant Heating Rate [W] !TimeStep
12,1,ZONE ONE,Zone Total Internal Convective Heating Rate [W] !TimeStep
13,1,ZONE ONE,Zone Windows Total Transmitted Solar Radiation Rate [W] !TimeStep
14,1,ZN001:WALL001,Surface Outside Face Sunlit Fraction [] !TimeStep
15,1,ZN001:WALL001,Surface Outside Face Incident Solar Radiation Rate per Area [W/m2] !TimeStep
16,1,ZN001:WALL002,Surface Outside Face Incident Solar Radiation Rate per Area [W/m2] !TimeStep
17,1,ZN001:WALL003,Surface Outside Face Incident Solar Radiation Rate per Area [W/m2] !TimeStep
18,1,ZN001:WALL004,Surface Outside Face Incident Solar Radiation Rate per Area [W/m2] !TimeStep
19,1,ZN001:ROOF001,Surface Outside Face Incident Solar Radiation Rate per Area [W/m2] !TimeStep
20,1,ZN001:WALL001:WIN001,Surface Outside Face Sunlit Fraction [] !TimeStep
21,1,ZN001:WALL001:WIN001,Surface Outside Face Incident Solar Radiation Rate per Area [W/m2] !TimeStep
22,1,ZN001:WALL001:WIN001,Surface Window Transmitted Solar Radiation Rate [W] !TimeStep
23,1,ZN001:WALL001:WIN001,Surface Window Net Heat Transfer Rate [W] !TimeStep
24,1,ZN001:WALL001,Surface Inside Face Temperature [C] !TimeStep
25,1,ZN001:WALL001,Surface Outside Face Temperature [C] !TimeStep
26,1,ZN001:WALL002,Surface Inside Face Temperature [C] !TimeStep
27,1,ZN001:WALL002,Surface Outside Face Temperature [C] !TimeStep
28,1,ZN001:WALL003,Surface Inside Face Temperature [C] !TimeStep
29,1,ZN001:WALL003,Surface Outside Face Temperature [C] !TimeStep
30,1,ZN001:WALL004,Surface Inside Face Temperature [C] !TimeStep
31,1,ZN001:WALL004,Surface Outside Face Temperature [C] !TimeStep
32,1,ZN001:FLR001,Surface Inside Face Temperature [C] !TimeStep
33,1,ZN001:FLR001,Surface Outside Face Temperature [C] !TimeStep
34,1,ZN001:ROOF001,Surface Inside Face Temperature [C] !TimeStep
35,1,ZN001:ROOF001,Surface Outside Face Temperature [C] !TimeStep
36,1,ZN001:WALL001:WIN001,Surface Inside Face Temperature [C] !TimeStep
37,1,ZN001:WALL001:WIN001,Surface Outside Face Temperature [C] !TimeStep
38,1,ZONE ONE,Zone Mean Air Temperature [C] !TimeStep
39,1,ZONE ONE,Zone Air Heat Balance Outdoor Air Transfer Rate [W] !TimeStep
End of Data Dictionary
1,DENVER STAPLETON INTL ARPT ANN HTG 99% CONDNS DB,  55.95,  -3.37,   0.00,  41.10
2,1,12,21, 0, 1, 0.00,15.00,WinterDesignDay
7,-16.0
8,0.0
9,0.0
10,18.96
11,0.0
12,0.0
13,0.0
14,0.0
15,0.0
16,0.0
17,0.0
18,0.0
19,0.0
20,0.0
21,0.0
22,0.0
23,7.2577222567367095
24,-19.066034151898247
25,-18.25073760461145
26,-19.06534419233009
27,-18.250706396034616
28,-19.060718183027365
29,-18.20003854169232
30,-19.06534419233009
31,-18.250706396034616
32,-19.15055549537422
33,-19.150534613996754
34,-19.231991299946568
35,-21.70389132763418
36,-18.941908162164395
37,-18.782359425437704
38,-19.14568057742413
39,0.0
2,1,12,21, 0, 1,15.00,30.00,WinterDesignDay
7,-16.0
8,0.0
9,0.0
10,18.96
11,0.0
12,0.0
13,0.0
14,0.0
15,0.0
16,0.0
17,0.0
18,0.0
19,0.0
20,0.0
21,0.0
22,0.0
23,7.258052937120045
24,-19.066051116607422
25,-18.250738355186158
26,-19.065361119609335
27,-18.250707144979565
28,-19.06073511113616
29,-18.200039274952353
30,-19.065361119609335
31,-18.250707144979565
32,-19.15057628791115
33,-19.15055549537422
34,-19.232009304909433
35,-21.70389164705319
36,-18.94191897010387
37,-18.78236384273805
38,-19.145698442745662
39,0.0
2,1,12,21, 0, 1,30.00,45.00,WinterDesignDay
7,-16.0
8,0.0
9,0.0
10,18.96
11,0.0
12,0.0
13,0.0
14,0.0
15,0.0
16,0.0
17,0.0
18,0.0
19,0.0
20,0.0
21,0.0
22,0.0
23,7.2583822119361
24,-19.06606800916206
25,-18.250739102568534
26,-19.06537797489337
27,-18.250707890739136
28,-19.06075196724635
29,-18.20004000509372
30,-19.06537797489337
31,-18.250707890739136
32,-19.15059699198547
33,-19.15057628791115
34,-19.232027233292126
35,-21.703891965113616
36,-18.94192973208169
37,-18.782368241252726
38,-19.14571623212832
39,0.0
2,1,12,21, 0, 1,45.00,60.00,WinterDesignDay
7,-16.0
8,0.0
9,0.0
10,18.96
11,0.0
12,0.0
13,0.0
14,0.0
15,0.0
16,0.0
17,0.0
18,0.0
19,0.0
20,0.0
21,0.0
22,0.0
23,7.2587100870473815
24,-19.066084829868885
25,-18.250739846772174
26,-19.06539475848824
27,-18.250708633326866
28,-19.060768751663947
29,-18.200040732129665
30,-19.06539475848824
31,-18.250708633326866
32,-19.1506176079735
33,-19.15059699198547
34,-19.232045085420197
35,-21.703892281821233
36,-18.941940448297203
37,-18.782372621063587
38,-19.145733945894506
39,0.0
2,1,12,21, 0, 2, 0.00,15.00,WinterDesignDay
7,-16.0
8,0.0
9,0.0
10,18.96
11,0.0
12,0.0
13,0.0
14,0.0
15,0.0
16,0.0
17,0.0
18,0.0
19,0.0
20,0.0
21,0.0
22,0.0
23,7.2590365682697575
24,-19.06610157903336
25,-18.25074058781056
26,-19.065411470698724
27,-18.25070937275624
28,-19.060785464693776
29,-18.20004145607341
30,-19.065411470698724
31,-18.25070937275624
32,-19.150638136249963
33,-19.1506176079735
34,-19.2320628616178
35,-21.703892597181774
36,-18.941951118947543
37,-18.782376982249474
38,-19.145751584365282
39,0.0
2,1,12,21, 0, 2,15.00,30.00,WinterDesignDay
7,-16.0
8,0.0
9,0.0
10,18.96
11,0.0
12,0.0
13,0.0
14,0.0
15,0.0
16,0.0
17,0.0
18,0.0
19,0.0
20,0.0
21,0.0
22,0.0
23,7.2593616617082155
24,-19.06611825695963
25,-18.25074132569718
26,-19.0654281118283
27,-18.25071010904069
28,-19.060802106639333
29,-18.20004217693809
30,-19.0654281118283
31,-18.25071010904069
32,-19.150658577187983
33,-19.150638136249963
34,-19.23208056220779
35,-21.703892911200995
36,-18.941961744220805
37,-18.78238132489122
38,-19.145769147860335
39,0.0
2,1,12,21, 0, 2,30.00,45.00,WinterDesignDay
7,-16.0
8,0.0
9,0.0
10,18.96
11,0.0
12,0.0
13,0.0
14,0.0
15,0.0
16,0.0
17,0.0
18,0.0
19,0.0
20,0.0
21,0.0
22,0.0
23,7.259685373276711
24,-19.066134863950527
25,-18.250742060445415
26,-19.065444682179137
27,-18.250710842193577
28,-19.060818677802764
29,-18.200042894736786
30,-19.065444682179137
31,-18.250710842193577
32,-19.15067893115908
33,-19.150658577187983
34,-19.232098187511582
35,-21.703893223884577
36,-18.941972324310683
37,-18.782385649064224
38,-19.145786636697995
39,0.0
2,1,12,21, 0, 2,45.00,60.00,WinterDesignDay
7,-16.0
8,0.0
9,0.0
10,18.96
11,0.0
12,0.0
13,0.0
14,0.0
15,0.0
16,0.0
17,0.0
18,0.0
19,0.0
20,0.0
21,0.0
22,0.0
23,7.260007708606069
24,-19.06615140030764
25,-18.250742792068614
26,-19.065461182052125
27,-18.250711572228205
28,-19.060835178485
29,-18.200043609482545
30,-19.065461182052125
31,-18.250711572228205
32,-19.15069919853324
33,-19.15067893115908
34,-19.232115737849227
35,-21.703893535238212
36,-18.941982859414054
37,-18.782389954851737
38,-19.145804051195256
39,0.0
2,1,12,21, 0, 3, 0.00,15.00,WinterDesignDay
7,-16.0
8,0.0
9,0.0
10,18.96
11,0.0
12,0.0
13,0.0
14,0.0
15,0.0
16,0.0
17,0.0
18,0.0
19,0.0
20,0.0
21,0.0
22,0.0
23,7.2603286737774475
24,-19.06616786633123
25,-18.250743520580055
26,-19.06547761174689
27,-18.250712299157854
28,-19.0608516089857
29,-18.200044321188347
30,-19.06547761174689
31,-18.250712299157854
32,-19.150719379678822
33,-19.15069919853324
34,-19.232133213539477
35,-21.703893845267547
36,-18.941993349716427
37,-18.78239424232629
38,-19.145821391667756
39,0.0
2,1,12,21, 0, 3,15.00,30.00,WinterDesignDay
7,-16.0
8,0.0
9,0.0
10,18.96
11,0.0
12,0.0
13,0.0
14,0.0
15,0.0
16,0.0
17,0.0
18,0.0
19,0.0
20,0.0
21,0.0
22,0.0
23,7.260648274408803
24,-19.066184262320327
25,-18.25074424599297
26,-19.065493971561782
27,-18.250713022995715
28,-19.06086796960321
29,-18.200045029867105
30,-19.065493971561782
31,-18.250713022995715
32,-19.15073947496267
33,-19.150719379678822
34,-19.232150614899666
35,-21.70389415397821
36,-18.94200379541354
37,-18.78239851157167
38,-19.14583865842981
39,0.0
2,1,12,21, 0, 3,30.00,45.00,WinterDesignDay
7,-16.0
8,0.0
9,0.0
10,18.96
11,0.0
12,0.0
13,0.0
14,0.0
15,0.0
16,0.0
17,0.0
18,0.0
19,0.0
20,0.0
21,0.0
22,0.0
23,7.260966516449593
24,-19.06620058857266
25,-18.250744968320532
26,-19.065510261793907
27,-18.250713743754932
28,-19.060884260634616
29,-18.2000457355317
30,-19.065510261793907
31,-18.250713743754932
32,-19.150759484750015
33,-19.15073947496267
34,-19.232167942245834
35,-21.703894461375825
36,-18.942014196690735
37,-18.78240276266061
38,-19.145855851794394
39,0.0
2,1,12,21, 0, 3,45.00,60.00,WinterDesignDay
7,-16.0
8,0.0
9,0.0
10,18.96
11,0.0
12,0.0
13,0.0
14,0.0
15,0.0
16,0.0
17,0.0
18,0.0
19,0.0
20,0.0
21,0.0
22,0.0
23,7.261283405701986
24,-19.0662168453847
25,-18.250745687575858
26,-19.06552648273905
27,-18.25071446144858
28,-19.06090048237576
29,-18.20004643819494
30,-19.06552648273905
31,-18.25071446144858
32,-19.150779409404574
33,-19.150759484750015
34,-19.232185195892626
35,-21.70389476746595
36,-18.94202455373616
37,-18.78240699567175
38,-19.145872972073157
39,0.0
2,1,12,21, 0, 4, 0.00,15.00,WinterDesignDay
7,-16.0
8,0.0
9,0.0
10,18.96
11,0.0
12,0.0
13,0.0
14,0.0
15,0.0
16,0.0
17,0.0
18,0.0
19,0.0
20,0.0
21,0.0
22,0.0
23,7.261598947595533
24,-19.066233033051663
25,-18.250746403772006
26,-19.06554263469177
27,-18.250715176089702
28,-19.060916635121217
29,-18.200047137869575
30,-19.06554263469177
31,-18.250715176089702
32,-19.150799249288514
33,-19.150779409404574
34,-19.232202376153367
35,-21.70389507225415
36,-18.942034866745814
37,-18.782411210684472
38,-19.145890019576438
39,0.0
2,1,12,21, 0, 4,15.00,30.00,WinterDesignDay
7,-16.0
8,0.0
9,0.0
10,18.96
11,0.0
12,0.0
13,0.0
14,0.0
15,0.0
16,0.0
17,0.0
18,0.0
19,0.0
20,0.0
21,0.0
22,0.0
23,7.261913148258839
24,-19.06624915186752
25,-18.25074711692199
26,-19.065558717945425
27,-18.25071588769129
28,-19.060932719164335
29,-18.20004783456833
30,-19.065558717945425
31,-18.25071588769129
32,-19.15081900476244
33,-19.150799249288514
34,-19.232219483340113
35,-21.703895375745976
36,-18.942045135896223
37,-18.782415407771737
38,-19.145906994613256
39,0.0
2,1,12,21, 0, 4,30.00,45.00,WinterDesignDay
7,-16.0
8,0.0
9,0.0
10,18.96
11,0.0
12,0.0
13,0.0
14,0.0
15,0.0
16,0.0
17,0.0
18,0.0
19,0.0
20,0.0
21,0.0
22,0.0
23,7.262226013205375
24,-19.066265202125006
25,-18.250747827038758
26,-19.065574732792044
27,-18.250716596266237
28,-19.060948734797147
29,-18.20004852830383
30,-19.065574732792044
31,-18.250716596266237
32,-19.15083867618543
33,-19.15081900476244
34,-19.232236517763468
35,-21.703895677946925
36,-18.94205536137872
37,-18.78241958701105
38,-19.14592389749132
39,0.0
2,1,12,21, 0, 4,45.00,60.00,WinterDesignDay
7,-16.0
8,0.0
9,0.0
10,18.96
11,0.0
12,0.0
13,0.0
14,0.0
15,0.0
16,0.0
17,0.0
18,0.0
19,0.0
20,0.0
21,0.0
22,0.0
23,7.262537548318576
24,-19.066281184115525
25,-18.25074853413519
26,-19.065590679522455
27,-18.25071730182743
28,-19.060964682310516
29,-18.200049219088694
30,-19.065590679522455
31,-18.25071730182743
32,-19.150858263915048
33,-19.15083867618543
34,-19.232253479732837
35,-21.703895978862484
36,-18.94206554337336
37,-18.7824237484748
38,-19.14594072851701
39,0.0
2,1,12,21, 0, 5, 0.00,15.00,WinterDesignDay
7,-16.0
8,0.0
9,0.0
10,18.96
11,0.0
12,0.0
13,0.0
14,0.0
15,0.0
16,0.0
17,0.0
18,0.0
19,0.0
20,0.0
21,0.0
22,0.0
23,7.262847758824759
24,-19.06629709812937
25,-18.25074923822414
26,-19.06560655842622
27,-18.250718004387664
28,-19.06098056199399
29,-18.200049906935448
30,-19.06560655842622
31,-18.250718004387664
32,-19.150877768307325
33,-19.150858263915048
34,-19.232270369556183
35,-21.703896278498114
36,-18.942075682075313
37,-18.7824278922445
38,-19.145957487995446
39,0.0
2,1,12,21, 0, 5,15.00,30.00,WinterDesignDay
7,-16.0
8,0.0
9,0.0
10,18.96
11,0.0
12,0.0
13,0.0
14,0.0
15,0.0
16,0.0
17,0.0
18,0.0
19,0.0
20,0.0
21,0.0
22,0.0
23,7.263156650547464
24,-19.06631294445549
25,-18.250749939318393
26,-19.06562236979174
27,-18.25071870395972
28,-19.060996374136025
29,-18.200050591856616
30,-19.06562236979174
31,-18.25071870395972
32,-19.15089718971679
33,-19.150877768307325
34,-19.23228718754033
35,-21.703896576859282
36,-18.94208577766429
37,-18.782432018393195
38,-19.145974176230443
39,0.0
2,1,12,21, 0, 5,30.00,45.00,WinterDesignDay
7,-16.0
8,0.0
9,0.0
10,18.96
11,0.0
12,0.0
13,0.0
14,0.0
15,0.0
16,0.0
17,0.0
18,0.0
19,0.0
20,0.0
21,0.0
22,0.0
23,7.263464229180297
24,-19.0663287233817
25,-18.250750637430688
26,-19.065638113906143
27,-18.250719400556285
28,-19.061012119023744
29,-18.200051273864613
30,-19.065638113906143
31,-18.250719400556285
32,-19.150916528496463
33,-19.15089718971679
34,-19.232303933990696
35,-21.703896873951383
36,-18.94209583032074
37,-18.782436126994014
38,-19.14599079352453
39,0.0
2,1,12,21, 0, 5,45.00,60.00,WinterDesignDay
7,-16.0
8,0.0
9,0.0
10,18.96
11,0.0
12,0.0
13,0.0
14,0.0
15,0.0
16,0.0
17,0.0
18,0.0
19,0.0
20,0.0
21,0.0
22,0.0
23,7.263770500235962
24,-19.06634443519452
25,-18.25075133257368
26,-19.06565379105535
27,-18.25072009419002
28,-19.06102779694306
29,-18.200051952971805
30,-19.06565379105535
31,-18.25072009419002
32,-19.150935784997838
33,-19.150916528496463
34,-19.232320609211378
35,-21.703897169779825
36,-18.942105840228237
37,-18.782440218123952
38,-19.146007340178947
39,0.0
2,1,12,21, 0, 6, 0.00,15.00,WinterDesignDay
7,-16.0
8,0.0
9,0.0
10,18.96
11,0.0
12,0.0
13,0.0
14,0.0
15,0.0
16,0.0
17,0.0
18,0.0
19,0.0
20,0.0
21,0.0
22,0.0
23,7.26407546934468
24,-19.066360080179305
25,-18.250752024760022
26,-19.06566940152404
27,-18.250720784873508
28,-19.061043408178698
29,-18.200052629190562
30,-19.06566940152404
31,-18.250720784873508
32,-19.150954959570942
33,-19.150935784997838
34,-19.232337213505247
35,-21.70389746434997
36,-18.942115807567035
37,-18.782444291854944
38,-19.146023816493663
39,0.0
2,1,12,21, 0, 6,15.00,30.00,WinterDesignDay
7,-16.0
8,0.0
9,0.0
10,18.96
11,0.0
12,0.0
13,0.0
14,0.0
15,0.0
16,0.0
17,0.0
18,0.0
19,0.0
20,0.0
21,0.0
22,0.0
23,7.264379141826579
24,-19.06637565862017
25,-18.250752714002257
26,-19.065684945595716
27,-18.250721472619304
28,-19.061058953014143
29,-18.20005330253314
30,-19.065684945595716
31,-18.250721472619304
32,-19.150974052564305
33,-19.150954959570942
34,-19.23235374717383
35,-21.70389775766717
36,-18.942125732524005
37,-18.78244834826205
38,-19.146040222767372
39,0.0
2,1,12,21, 0, 6,30.00,45.00,WinterDesignDay
7,-16.0
8,0.0
9,0.0
10,18.96
11,0.0
12,0.0
13,0.0
14,0.0
15,0.0
16,0.0
17,0.0
18,0.0
19,0.0
20,0.0
21,0.0
22,0.0
23,7.264681523401437
24,-19.0663911708
25,-18.25075340031291
26,-19.065700423552677
27,-18.250722157439892
28,-19.06107443173171
29,-18.200053973011784
30,-19.065700423552677
31,-18.250722157439892
32,-19.150993064324965
33,-19.150974052564305
34,-19.232370210517445
35,-21.70389804973677
36,-18.94213561527249
37,-18.78245238741914
38,-19.146056559297516
39,0.0
2,1,12,21, 0, 6,45.00,60.00,WinterDesignDay
7,-16.0
8,0.0
9,0.0
10,18.96
11,0.0
12,0.0
13,0.0
14,0.0
15,0.0
16,0.0
17,0.0
18,0.0
19,0.0
20,0.0
21,0.0
22,0.0
23,7.264982619453678
24,-19.066406617000535
25,-18.250754083704457
26,-19.06571583567599
27,-18.250722839347713
28,-19.061089844612507
29,-18.200054640638648
30,-19.06571583567599
31,-18.250722839347713
32,-19.1510119951985
33,-19.150993064324965
34,-19.23238660383504
35,-21.703898340564045
36,-18.94214545599516
37,-18.78245640939923
38,-19.146072826380266
39,0.0
2,1,12,21, 0, 7, 0.00,15.00,WinterDesignDay
7,-16.0
8,0.0
9,0.0
10,18.96
11,0.0
12,0.0
13,0.0
14,0.0
15,0.0
16,0.0
17,0.0
18,0.0
19,0.0
20,0.0
21,0.0
22,0.0
23,7.265282435444391
24,-19.066421997502292
25,-18.2507547641893
26,-19.065731182245553
27,-18.250723518355134
28,-19.06110519193643
29,-18.200055305425863
30,-19.065731182245553
31,-18.250723518355134
32,-19.151030845528993
33,-19.1510119951985
34,-19.232402927424385
35,-21.7038986301543
36,-18.942155254870528
37,-18.78246041427485
38,-19.146089024310545
39,0.0
2,1,12,21, 0, 7,15.00,30.00,WinterDesignDay
7,-16.0
8,0.0
9,0.0
10,18.96
11,0.0
12,0.0
13,0.0
14,0.0
15,0.0
16,0.0
17,0.0
18,0.0
19,0.0
20,0.0
21,0.0
22,0.0
23,7.265580976955042
24,-19.066437312584565
25,-18.250755441779788
26,-19.065746463540105
27,-18.25072419447451
28,-19.061120473982186
29,-18.20005596738551
30,-19.065746463540105
31,-18.25072419447451
32,-19.1510496156591
33,-19.151030845528993
34,-19.232419181581932
35,-21.703898918512788
36,-18.94216501207265
37,-18.78246440211882
38,-19.146105153382006
39,0.0
2,1,12,21, 0, 7,30.00,45.00,WinterDesignDay
7,-16.0
8,0.0
9,0.0
10,18.96
11,0.0
12,0.0
13,0.0
14,0.0
15,0.0
16,0.0
17,0.0
18,0.0
19,0.0
20,0.0
21,0.0
22,0.0
23,7.265878249159996
24,-19.066452562525534
25,-18.250756116488237
26,-19.065761679837106
27,-18.250724867718098
28,-19.061135691027324
29,-18.200056626529612
30,-19.065761679837106
31,-18.250724867718098
32,-19.151068305930007
33,-19.1510496156591
34,-19.232435366602854
35,-21.70389920564473
36,-18.94217472778493
37,-18.782468373005543
38,-19.146121213887074
39,0.0
2,1,12,21, 0, 7,45.00,60.00,WinterDesignDay
7,-16.0
8,0.0
9,0.0
10,18.96
11,0.0
12,0.0
13,0.0
14,0.0
15,0.0
16,0.0
17,0.0
18,0.0
19,0.0
20,0.0
21,0.0
22,0.0
23,7.266174257385836
24,-19.06646774760211
25,-18.250756788326896
26,-19.065776831412958
27,-18.25072553809814
28,-19.061150843348212
29,-18.200057282870134
30,-19.065776831412958
31,-18.25072553809814
32,-19.151086916681418
33,-19.151068305930007
34,-19.23245148278113
35,-21.703899491555365
36,-18.94218440218512
37,-18.782472327006758
38,-19.14613720611695
39,0.0
2,1,12,21, 0, 8, 0.00,15.00,WinterDesignDay
7,-16.0
8,0.0
9,0.0
10,18.96
11,0.0
12,0.0
13,0.0
14,0.0
15,0.0
16,0.0
17,0.0
18,0.0
19,0.0
20,0.0
21,0.0
22,0.0
23,7.266469007361879
24,-19.066482868090105
25,-18.250757457307976
26,-19.065791918542818
27,-18.250726205626812
28,-19.061165931220035
29,-18.200057936418993
30,-19.065791918542818
31,-18.250726205626812
32,-19.15110544825164
33,-19.151086916681418
34,-19.232467530409508
35,-21.703899776249877
36,-18.942194035438945
37,-18.782476264190052
38,-19.146153130361583
39,0.0
2,1,12,21, 0, 8,15.00,30.00,WinterDesignDay
7,-16.0
8,0.0
9,0.0
10,18.96
11,0.0
12,0.0
13,0.0
14,0.0
15,0.0
16,0.0
17,0.0
18,0.0
19,0.0
20,0.0
21,0.0
22,0.0
23,7.266762504120511
24,-19.06649792426414
25,-18.25075812344362
26,-19.06580694150068
27,-18.250726870316225
28,-19.061180954916782
29,-18.20005858718806
30,-19.06580694150068
31,-18.250726870316225
32,-19.151123900977517
33,-19.15110544825164
34,-19.23248350977939
35,-21.70390005973344
36,-18.94220362773075
37,-18.78248018463239
38,-19.146168986909696
39,0.0
2,1,12,21, 0, 8,30.00,45.00,WinterDesignDay
7,-16.0
8,0.0
9,0.0
10,18.96
11,0.0
12,0.0
13,0.0
14,0.0
15,0.0
16,0.0
17,0.0
18,0.0
19,0.0
20,0.0
21,0.0
22,0.0
23,7.267054753343378
24,-19.066512916397627
25,-18.25075878674592
26,-19.065821900559403
27,-18.25072753217846
28,-19.06119591471134
29,-18.200059235189162
30,-19.065821900559403
31,-18.25072753217846
32,-19.151142275194438
33,-19.151123900977517
34,-19.232499421181014
35,-21.703900342011195
36,-18.942213179224524
37,-18.78248408839835
38,-19.146184776048774
39,0.0
2,1,12,21, 0, 8,45.00,60.00,WinterDesignDay
7,-16.0
8,0.0
9,0.0
10,18.96
11,0.0
12,0.0
13,0.0
14,0.0
15,0.0
16,0.0
17,0.0
18,0.0
19,0.0
20,0.0
21,0.0
22,0.0
23,7.267345759982028
24,-19.066527844762835
25,-18.250759447226915
26,-19.065836795990602
27,-18.250728191225512
28,-19.061210810875338
29,-18.200059880434043
30,-19.065836795990602
31,-18.250728191225512
32,-19.151160571236403
33,-19.151142275194438
34,-19.232515264903334
35,-21.703900623088266
36,-18.942222690102312
37,-18.782487975566255
38,-19.14620049806511
39,0.0
2,1,12,21, 0, 9, 0.00,15.00,WinterDesignDay
7,-16.0
8,0.0
9,0.0
10,18.96
11,0.0
12,0.0
13,0.0
14,0.0
15,0.0
16,0.0
17,0.0
18,0.0
19,0.0
20,0.0
21,0.0
22,0.0
23,7.267635529419306
24,-19.06654270963091
25,-18.250760104898625
26,-19.06585162806484
27,-18.250728847469386
28,-19.061225643679336
29,-18.200060522934443
30,-19.06585162806484
31,-18.250728847469386
32,-19.15117878943598
33,-19.151160571236403
34,-19.232531041234132
35,-21.703900902969774
36,-18.9422321605349
37,-18.782491846201793
38,-19.146216153243756
39,0.0
2,1,12,21, 0, 9,15.00,30.00,WinterDesignDay
7,-16.0
8,0.0
9,0.0
10,18.96
11,0.0
12,0.0
13,0.0
14,0.0
15,0.0
16,0.0
17,0.0
18,0.0
19,0.0
20,0.0
21,0.0
22,0.0
23,7.2679240667884875
24,-19.06655751127182
25,-18.250760759772973
26,-19.065866397051497
27,-18.25072950092198
28,-19.061240413392742
29,-18.200061162702035
30,-19.065866397051497
31,-18.25072950092198
32,-19.151196930124314
33,-19.15117878943598
34,-19.232546750459974
35,-21.7039011816608
36,-18.942241590696227
37,-18.782495700377297
38,-19.14623174186859
39,0.0
2,1,12,21, 0, 9,30.00,45.00,WinterDesignDay
7,-16.0
8,0.0
9,0.0
10,18.96
11,0.0
12,0.0
13,0.0
14,0.0
15,0.0
16,0.0
17,0.0
18,0.0
19,0.0
20,0.0
21,0.0
22,0.0
23,7.26821137760721
24,-19.066572249954394
25,-18.250761411861856
26,-19.065881103218814
27,-18.25073015159517
28,-19.0612551202838
29,-18.200061799748422
30,-19.065881103218814
31,-18.25073015159517
32,-19.15121499363116
33,-19.151196930124314
34,-19.23256239286618
35,-21.70390145916639
36,-18.942250980751254
37,-18.78249953816197
38,-19.14624726422226
39,0.0
2,1,12,21, 0, 9,45.00,60.00,WinterDesignDay
7,-16.0
8,0.0
9,0.0
10,18.96
11,0.0
12,0.0
13,0.0
14,1.0
15,0.0
16,0.0
17,0.0
18,0.0
19,0.0
20,1.0
21,0.0
22,0.0
23,7.2684974669438365
24,-19.066586925946318
25,-18.25076206117713
26,-19.065895746833867
27,-18.250730799500772
28,-19.061269764619603
29,-18.200062434085183
30,-19.065895746833867
31,-18.250730799500772
32,-19.15123298028485
33,-19.15121499363116
34,-19.23257796873679
35,-21.703901735491584
36,-18.942260330873125
37,-18.78250335962406
38,-19.146262720586222
39,0.0
2,1,12,21, 0,10, 0.00,15.00,WinterDesignDay
7,-16.0
8,0.0
9,0.0
10,18.96
11,0.0
12,0.0
13,0.0
14,1.0
15,0.0
16,0.0
17,0.0
18,0.0
19,0.0
20,1.0
21,0.0
22,0.0
23,7.268782339851412
24,-19.066601539514103
25,-18.25076270773057
26,-19.065910328162605
27,-18.25073144465054
28,-19.061284346666096
29,-18.20006306572383
30,-19.065910328162605
31,-18.25073144465054
32,-19.15125089041232
33,-19.15123298028485
34,-19.232593478354765
35,-21.703902010641425
36,-18.94226964123544
37,-18.782507164837767
38,-19.146278111240754
39,0.0
2,1,12,21, 0,10,15.00,30.00,WinterDesignDay
7,-16.0
8,0.0
9,0.0
10,18.96
11,0.0
12,0.0
13,0.0
14,1.0
15,0.0
16,0.0
17,0.0
18,0.0
19,0.0
20,1.0
21,0.0
22,0.0
23,7.269066001862015
24,-19.066616090923194
25,-18.25076335153393
26,-19.065924847469866
27,-18.250732087056203
28,-19.061298866688144
29,-18.20006369467583
30,-19.065924847469866
31,-18.250732087056203
32,-19.15126872433913
33,-19.15125089041232
34,-19.232608922001802
35,-21.703902284620888
36,-18.942278911997818
37,-18.782510953864573
38,-19.14629343646492
39,0.0
2,1,12,21, 0,10,30.00,45.00,WinterDesignDay
7,-16.0
8,0.0
9,0.0
10,18.96
11,0.0
12,0.0
13,0.0
14,1.0
15,0.0
16,0.0
17,0.0
18,0.0
19,0.0
20,1.0
21,0.0
22,0.0
23,7.269348457673477
24,-19.066630580437874
25,-18.250763992598905
26,-19.06593930501932
27,-18.250732726729414
28,-19.061313324949435
29,-18.20006432095262
30,-19.06593930501932
31,-18.250732726729414
32,-19.151286482389448
33,-19.15126872433913
34,-19.23262429995835
35,-21.703902557434958
36,-18.942288143340193
37,-18.782514726781244
38,-19.146308696536614
39,0.0
2,1,12,21, 0,10,45.00,60.00,WinterDesignDay
7,-16.0
8,0.0
9,0.0
10,18.96
11,0.0
12,0.0
13,0.0
14,1.0
15,0.0
16,0.0
17,0.0
18,0.0
19,0.0
20,1.0
21,0.0
22,0.0
23,7.269629712731068
24,-19.066645008321284
25,-18.250764630937113
26,-19.065953701073585
27,-18.25073336368182
28,-19.061327721712594
29,-18.20006494456558
30,-19.065953701073585
31,-18.25073336368182
32,-19.15130416488607
33,-19.151286482389448
34,-19.232639612503792
35,-21.703902829088598
36,-18.94229733542153
37,-18.78251848365042
38,-19.146323891732557
39,0.0
2,1,12,21, 0,11, 0.00,15.00,WinterDesignDay
7,-16.0
8,0.0
9,0.0
10,18.96
11,0.0
12,0.0
13,0.0
14,1.0
15,0.0
16,0.0
17,0.0
18,0.0
19,0.0
20,1.0
21,0.0
22,0.0
23,7.2699097719436825
24,-19.066659374835503
25,-18.250765266560183
26,-19.065968035894095
27,-18.250733997924957
28,-19.06134205723907
29,-18.200065565526014
30,-19.065968035894095
31,-18.250733997924957
32,-19.1513217721504
33,-19.15130416488607
34,-19.23265485991622
35,-21.703903099586725
36,-18.942306488413863
37,-18.782522224541736
38,-19.14633902232829
39,0.0
2,1,12,21, 0,11,15.00,30.00,WinterDesignDay
7,-16.0
8,0.0
9,0.0
10,18.96
11,0.0
12,0.0
13,0.0
14,1.0
15,0.0
16,0.0
17,0.0
18,0.0
19,0.0
20,1.0
21,0.0
22,0.0
23,7.270188640495136
24,-19.066673680241433
25,-18.25076589947963
26,-19.065982309741255
27,-18.25073462947037
28,-19.06135633178924
29,-18.200066183845212
30,-19.065982309741255
31,-18.25073462947037
32,-19.1513393045025
33,-19.1513217721504
34,-19.232670042472577
35,-21.703903368934256
36,-18.942315602480505
37,-18.782525949525564
38,-19.1463540885982
39,0.0
2,1,12,21, 0,11,30.00,45.00,WinterDesignDay
7,-16.0
8,0.0
9,0.0
10,18.96
11,0.0
12,0.0
13,0.0
14,1.0
15,0.0
16,0.0
17,0.0
18,0.0
19,0.0
20,1.0
21,0.0
22,0.0
23,7.270466323312853
24,-19.066687924798924
25,-18.250766529706976
26,-19.06599652287428
27,-18.250735258329513
28,-19.0613705456224
29,-18.20006679953442
30,-19.06599652287428
31,-18.250735258329513
32,-19.151356762261052
33,-19.1513393045025
34,-19.23268516044861
35,-21.703903637136104
36,-18.94232467779034
37,-18.782529658668096
38,-19.146369090815504
39,0.0
2,1,12,21, 0,11,45.00,60.00,WinterDesignDay
7,-16.0
8,0.0
9,0.0
10,18.96
11,0.0
12,0.0
13,0.0
14,1.0
15,0.0
16,0.0
17,0.0
18,0.0
19,0.0
20,1.0
21,0.0
22,0.0
23,7.27074282553365
24,-19.066702108766677
25,-18.25076715725364
26,-19.066010675551336
27,-18.25073588451382
28,-19.061384698996672
29,-18.200067412604785
30,-19.066010675551336
31,-18.25073588451382
32,-19.151374145743386
33,-19.151356762261052
34,-19.232700214118978
35,-21.703903904197116
36,-18.942333714505423
37,-18.782533352037035
38,-19.146384029252257
39,0.0
2,1,12,21, 0,12, 0.00,15.00,WinterDesignDay
7,-16.0
8,0.0
9,0.0
10,18.96
11,0.0
12,0.0
13,0.0
14,1.0
15,0.0
16,0.0
17,0.0
18,0.0
19,0.0
20,1.0
21,0.0
22,0.0
23,7.271018152253375
24,-19.066716232402317
25,-18.250767782131035
26,-19.06602476802947
27,-18.250736508034645
28,-19.061398792169133
29,-18.200068023067463
30,-19.06602476802947
31,-18.250736508034645
32,-19.15139145526549
33,-19.151374145743386
34,-19.232715203757063
35,-21.703904170122158
36,-18.942342712787223
37,-18.782537029695675
38,-19.146398904179364
39,0.0
2,1,12,21, 0,12,15.00,30.00,WinterDesignDay
7,-16.0
8,0.0
9,0.0
10,18.96
11,0.0
12,0.0
13,0.0
14,1.0
15,0.0
16,0.0
17,0.0
18,0.0
19,0.0
20,1.0
21,0.0
22,0.0
23,7.271292308426401
24,-19.066730295962383
25,-18.250768404350524
26,-19.06603880056462
27,-18.25073712890332
28,-19.061412825395742
29,-18.20006863093354
30,-19.06603880056462
31,-18.25073712890332
32,-19.151408691142006
33,-19.15139145526549
34,-19.232730129635133
35,-21.703904434916048
36,-18.94235167280135
37,-18.782540691715838
38,-19.146413715866572
39,0.0
2,1,12,21, 0,12,30.00,45.00,WinterDesignDay
7,-16.0
8,0.0
9,0.0
10,18.96
11,0.0
12,0.0
13,0.0
14,1.0
15,0.0
16,0.0
17,0.0
18,0.0
19,0.0
20,1.0
21,0.0
22,0.0
23,7.271565298949842
24,-19.066744299702297
25,-18.25076902392337
26,-19.066052773411663
27,-18.250737747131133
28,-19.06142679893138
29,-18.200069236214055
30,-19.066052773411663
31,-18.250737747131133
32,-19.151425853686234
33,-19.151408691142006
34,-19.232744992024273
35,-21.703904698583603
36,-18.94236059471112
37,-18.782544338161813
38,-19.146428464582492
39,0.0
2,1,12,21, 0,12,45.00,60.00,WinterDesignDay
7,-16.0
8,0.0
9,0.0
10,18.96
11,0.0
12,0.0
13,0.0
14,1.0
15,0.0
16,0.0
17,0.0
18,0.0
19,0.0
20,1.0
21,0.0
22,0.0
23,7.271837128742924
24,-19.066758243876407
25,-18.25076964086086
26,-19.0660666868244
27,-18.250738362729304
28,-19.061440713029846
29,-18.200069838919998
30,-19.0660666868244
31,-18.250738362729304
32,-19.151442943210128
33,-19.151425853686234
34,-19.232759791194486
35,-21.70390496112961
36,-18.94236947868046
37,-18.782547969100563
38,-19.1464431505946
39,0.0
2,1,12,21, 0,13, 0.00,15.00,WinterDesignDay
7,-16.0
8,0.0
9,0.0
10,18.96
11,0.0
12,0.0
13,0.0
14,1.0
15,0.0
16,0.0
17,0.0
18,0.0
19,0.0
20,1.0
21,0.0
22,0.0
23,7.272107802890792
24,-19.066772128738002
25,-18.250770255174185
26,-19.066080541055552
27,-18.250738975709016
28,-19.061454567943905
29,-18.200070439062326
30,-19.066080541055552
31,-18.250738975709016
32,-19.151459960024354
33,-19.151442943210128
34,-19.232774527414552
35,-21.70390522255884
36,-18.9423783248655
37,-18.7825515845972
38,-19.14645777416923
39,0.0
2,1,12,21, 0,13,15.00,30.00,WinterDesignDay
7,-16.0
8,0.0
9,0.0
10,18.96
11,0.0
12,0.0
13,0.0
14,1.0
15,0.0
16,0.0
17,0.0
18,0.0
19,0.0
20,1.0
21,0.0
22,0.0
23,7.272377326324323
24,-19.066785954539245
25,-18.2507708668745
26,-19.06609433635672
27,-18.25073958608139
28,-19.061468363925137
29,-18.20007103665192
30,-19.06609433635672
31,-18.25073958608139
32,-19.151476904438216
33,-19.151459960024354
34,-19.232789200952148
35,-21.70390548287604
36,-18.942387133427587
37,-18.782555184713686
38,-19.146472335571584
39,0.0
2,1,12,21, 0,13,30.00,45.00,WinterDesignDay
7,-16.0
8,0.0
9,0.0
10,18.96
11,0.0
12,0.0
13,0.0
14,1.0
15,0.0
16,0.0
17,0.0
18,0.0
19,0.0
20,1.0
21,0.0
22,0.0
23,7.272645703744762
24,-19.066799721531268
25,-18.250771475972925
26,-19.06610807297848
27,-18.250740193857528
28,-19.061482101224136
29,-18.200071631699647
30,-19.06610807297848
31,-18.250740193857528
32,-19.151493776759715
33,-19.151476904438216
34,-19.23280381207379
35,-21.703905742085936
36,-18.9423959045302
37,-18.782558769522495
38,-19.146486835065744
39,0.0
2,1,12,21, 0,13,45.00,60.00,WinterDesignDay
7,-16.0
8,0.0
9,0.0
10,18.96
11,0.0
12,0.0