Program Version,EnergyPlus, Version 23.2.0-7636e6b3e9, YMD=2026.07.22 13:32
1,5,Environment Title[],Latitude[deg],Longitude[deg],Time Zone[],Elevation[m]
2,8,Day of Simulation[],Month[],Day of Month[],DST Indicator[1=yes 0=no],Hour[],StartMinute[],EndMinute[],DayType
3,5,Cumulative Day of Simulation[],Month[],Day of Month[],DST Indicator[1=yes 0=no],DayType  ! When Daily Report Variables Requested
4,2,Cumulative Days of Simulation[],Month[]  ! When Monthly Report Variables Requested
5,1,Cumulative Days of Simulation[] ! When Run Period Report Variables Requested
6,1,Calendar Year of Simulation[] ! When Annual Report Variables Requested
7,1,Environment,Site Outdoor Air Drybulb Temperature [C] !TimeStep
8,1,Environment,Site Sky Temperature [C] !TimeStep
9,1,Environment,Site Diffuse Solar Radiation Rate per Area [W/m2] !TimeStep
10,1,Environment,Site Direct Solar Radiation Rate per Area [W/m2] !TimeStep
11,1,Environment,Site Ground Temperature [C] !TimeStep
12,1,ZONE ONE,Zone Total Internal Radiant Heating Rate [W] !TimeStep
13,1,ZONE ONE,Zone Total Internal Convective Heating Rate [W] !TimeStep
14,1,ZONE ONE,Zone Windows Total Transmitted Solar Radiation Rate [W] !TimeStep
15,1,ZN001:WALL001,Surface Outside Face Sunlit Fraction [] !TimeStep
16,1,ZN001:WALL001,Surface Outside Face Incident Solar Radiation Rate per Area [W/m2] !TimeStep
17,1,ZN001:WALL002,Surface Outside Face Incident Solar Radiation Rate per Area [W/m2] !TimeStep
18,1,ZN001:WALL003,Surface Outside Face Incident Solar Radiation Rate per Area [W/m2] !TimeStep
19,1,ZN001:WALL004,Surface Outside Face Incident Solar Radiation Rate per Area [W/m2] !TimeStep
20,1,ZN001:ROOF001,Surface Outside Face Incident Solar Radiation Rate per Area [W/m2] !TimeStep
21,1,ZN001:WALL001:WIN001,Surface Outside Face Sunlit Fraction [] !TimeStep
22,1,ZN001:WALL001:WIN001,Surface Outside Face Incident Solar Radiation Rate per Area [W/m2] !TimeStep
23,1,ZN001:WALL001:WIN001,Surface Window Transmitted Solar Radiation Rate [W] !TimeStep
24,1,ZN001:WALL001:WIN001,Surface Window Net Heat Transfer Rate [W] !TimeStep
25,1,ZN001:WALL001,Surface Inside Face Temperature [C] !TimeStep
26,1,ZN001:WALL001,Surface Outside Face Temperature [C] !TimeStep
27,1,ZN001:WALL001,Surface Inside Face Convection Heat Transfer Coefficient [W/m2-K] !TimeStep
28,1,ZN001:WALL001,Surface Outside Face Convection Heat Transfer Coefficient [W/m2-K] !TimeStep
29,1,ZN001:WALL001,Surface Outside Face Net Thermal Radiation Heat Gain Rate [W] !TimeStep
30,1,ZN001:WALL001,Surface Outside Face Thermal Radiation to Sky Heat Transfer Coefficient [W/m2-K] !TimeStep
31,1,ZN001:WALL001,Surface Outside Face Thermal Radiation to Ground Heat Transfer Coefficient [W/m2-K] !TimeStep
32,1,ZN001:WALL001,Surface Outside Face Thermal Radiation to Air Heat Transfer Rate [W] !TimeStep
33,1,ZN001:WALL001,Surface Outside Face Solar Radiation Heat Gain Rate [W] !TimeStep
34,1,ZN001:WALL002,Surface Inside Face Temperature [C] !TimeStep
35,1,ZN001:WALL002,Surface Outside Face Temperature [C] !TimeStep
36,1,ZN001:WALL002,Surface Inside Face Convection Heat Transfer Coefficient [W/m2-K] !TimeStep
37,1,ZN001:WALL002,Surface Outside Face Convection Heat Transfer Coefficient [W/m2-K] !TimeStep
38,1,ZN001:WALL002,Surface Outside Face Net Thermal Radiation Heat Gain Rate [W] !TimeStep
39,1,ZN001:WALL002,Surface Outside Face Thermal Radiation to Sky Heat Transfer Coefficient [W/m2-K] !TimeStep
40,1,ZN001:WALL002,Surface Outside Face Thermal Radiation to Ground Heat Transfer Coefficient [W/m2-K] !TimeStep
41,1,ZN001:WALL002,Surface Outside Face Thermal Radiation to Air Heat Transfer Rate [W] !TimeStep
42,1,ZN001:WALL002,Surface Outside Face Solar Radiation Heat Gain Rate [W] !TimeStep
43,1,ZN001:WALL003,Surface Inside Face Temperature [C] !TimeStep
44,1,ZN001:WALL003,Surface Outside Face Temperature [C] !TimeStep
45,1,ZN001:WALL003,Surface Inside Face Convection Heat Transfer Coefficient [W/m2-K] !TimeStep
46,1,ZN001:WALL003,Surface Outside Face Convection Heat Transfer Coefficient [W/m2-K] !TimeStep
47,1,ZN001:WALL003,Surface Outside Face Net Thermal Radiation Heat Gain Rate [W] !TimeStep
48,1,ZN001:WALL003,Surface Outside Face Thermal Radiation to Sky Heat Transfer Coefficient [W/m2-K] !TimeStep
49,1,ZN001:WALL003,Surface Outside Face Thermal Radiation to Ground Heat Transfer Coefficient [W/m2-K] !TimeStep
50,1,ZN001:WALL003,Surface Outside Face Thermal Radiation to Air Heat Transfer Rate [W] !TimeStep
51,1,ZN001:WALL003,Surface Outside Face Solar Radiation Heat Gain Rate [W] !TimeStep
52,1,ZN001:WALL004,Surface Inside Face Temperature [C] !TimeStep
53,1,ZN001:WALL004,Surface Outside Face Temperature [C] !TimeStep
54,1,ZN001:WALL004,Surface Inside Face Convection Heat Transfer Coefficient [W/m2-K] !TimeStep
55,1,ZN001:WALL004,Surface Outside Face Convection Heat Transfer Coefficient [W/m2-K] !TimeStep
56,1,ZN001:WALL004,Surface Outside Face Net Thermal Radiation Heat Gain Rate [W] !TimeStep
57,1,ZN001:WALL004,Surface Outside Face Thermal Radiation to Sky Heat Transfer Coefficient [W/m2-K] !TimeStep
58,1,ZN001:WALL004,Surface Outside Face Thermal Radiation to Ground Heat Transfer Coefficient [W/m2-K] !TimeStep
59,1,ZN001:WALL004,Surface Outside Face Thermal Radiation to Air Heat Transfer Rate [W] !TimeStep
60,1,ZN001:WALL004,Surface Outside Face Solar Radiation Heat Gain Rate [W] !TimeStep
61,1,ZN001:FLR001,Surface Inside Face Temperature [C] !TimeStep
62,1,ZN001:FLR001,Surface Outside Face Temperature [C] !TimeStep
63,1,ZN001:FLR001,Surface Inside Face Convection Heat Transfer Coefficient [W/m2-K] !TimeStep
64,1,ZN001:ROOF001,Surface Inside Face Temperature [C] !TimeStep
65,1,ZN001:ROOF001,Surface Outside Face Temperature [C] !TimeStep
66,1,ZN001:ROOF001,Surface Inside Face Convection Heat Transfer Coefficient [W/m2-K] !TimeStep
67,1,ZN001:ROOF001,Surface Outside Face Convection Heat Transfer Coefficient [W/m2-K] !TimeStep
68,1,ZN001:ROOF001,Surface Outside Face Net Thermal Radiation Heat Gain Rate [W] !TimeStep
69,1,ZN001:ROOF001,Surface Outside Face Thermal Radiation to Sky Heat Transfer Coefficient [W/m2-K] !TimeStep
70,1,ZN001:ROOF001,Surface Outside Face Thermal Radiation to Ground Heat Transfer Coefficient [W/m2-K] !TimeStep
71,1,ZN001:ROOF001,Surface Outside Face Thermal Radiation to Air Heat Transfer Rate [W] !TimeStep
72,1,ZN001:ROOF001,Surface Outside Face Solar Radiation Heat Gain Rate [W] !TimeStep
73,1,ZN001:WALL001:WIN001,Surface Inside Face Temperature [C] !TimeStep
74,1,ZN001:WALL001:WIN001,Surface Outside Face Temperature [C] !TimeStep
75,1,ZN001:WALL001:WIN001,Surface Inside Face Convection Heat Transfer Coefficient [W/m2-K] !TimeStep
76,1,ZN001:WALL001:WIN001,Surface Outside Face Convection Heat Transfer Coefficient [W/m2-K] !TimeStep
77,1,ZN001:WALL001:WIN001,Surface Outside Face Net Thermal Radiation Heat Gain Rate [W] !TimeStep
78,1,ZN001:WALL001:WIN001,Surface Outside Face Thermal Radiation to Sky Heat Transfer Coefficient [W/m2-K] !TimeStep
79,1,ZN001:WALL001:WIN001,Surface Outside Face Thermal Radiation to Ground Heat Transfer Coefficient [W/m2-K] !TimeStep
80,1,ZN001:WALL001:WIN001,Surface Outside Face Thermal Radiation to Air Heat Transfer Rate [W] !TimeStep
81,1,ZONE ONE,Zone Mean Air Temperature [C] !TimeStep
82,1,ZONE ONE,Zone Air Heat Balance Internal Convective Heat Gain Rate [W] !TimeStep
83,1,ZONE ONE,Zone Air Heat Balance Surface Convection Rate [W] !TimeStep
84,1,ZONE ONE,Zone Air Heat Balance Outdoor Air Transfer Rate [W] !TimeStep
85,1,ZONE ONE,Zone Air Heat Balance Air Energy Storage Rate [W] !TimeStep
End of Data Dictionary
1,RUN PERIOD 1,  55.95,  -3.37,   0.00,  41.10
2,1, 4, 1, 0, 1, 0.00,15.00,Tuesday
7,3.8249999999999997
8,-1.4987413327883132
9,0.0
10,0.0
11,19.12
12,0.0
13,0.0
14,0.0
15,0.0
16,0.0
17,0.0
18,0.0
19,0.0
20,0.0
21,0.0
22,0.0
23,0.0
24,-90.98860948516477
25,6.554358733116361
26,2.91443299319092
27,0.8684180928239063
28,2.6931407843412494
29,-236.01708510242503
30,1.4841396079028573
31,2.160451955603022
32,-33.72620954660236
33,0.0
34,6.547672960337172
35,2.9168447628788012
36,0.8802405771808969
37,2.7038294348359306
38,-279.98086686064727
39,1.4835411122729518
40,2.1595946086121405
41,-39.79996855316426
42,0.0
43,6.540346419157505
44,2.814905818442493
45,0.8797663937715026
46,1.967190116543017
47,-249.61672971663532
48,1.4835715593568406
49,2.1596382242205445
50,-44.29361950673628
51,0.0
52,6.539709491518782
53,2.8101974189779084
54,0.8747908669026085
55,1.9468609265888293
56,-248.31273492168214
57,1.4841543774087296
58,2.160473112938696
59,-44.51834062244055
60,0.0
61,7.215367671409673
62,7.24144409082112
63,1.0549905219785043
64,6.667225865889294
65,0.4665723506478229
66,0.8474402031469067
67,2.110102563613177
68,-1895.956767986207
69,4.153618626188372
70,0.0
71,0.0
72,0.0
73,5.374411195033417
74,4.005375120945018
75,1.3759832329399448
76,1.8903863876329519
77,-79.6455758425493
78,1.393368864776678
79,2.028183886591102
80,-1.0481370250718565
81,6.871467777434995
82,0.0
83,-58.52578392988622
84,0.0
85,-53.06900909890267
2,1, 4, 1, 0, 1,15.00,30.00,Tuesday
7,3.8499999999999996
8,-2.884055518863761
9,0.0
10,0.0
11,19.12
12,0.0
13,0.0
14,0.0
15,0.0
16,0.0
17,0.0
18,0.0
19,0.0
20,0.0
21,0.0
22,0.0
23,0.0
24,-96.2004069233591
25,6.497515485033312
26,2.703822586804473
27,0.8933416486922214
28,2.965930372526029
29,-295.8238893254801
30,1.4711012571718498
31,2.1580374770931234
32,-42.45465083187706
33,0.0
34,6.489865366816778
35,2.7032738446001026
36,0.8995762959563964
37,2.9656400538909997
38,-350.01196659386994
39,1.4711208761434265
40,2.1580656777149243
41,-50.27888647677704
42,0.0
43,6.481701525229142
44,2.5829228294963675
45,0.9063106926809474
46,2.23654094042756
47,-314.09820502763705
48,1.4702918366218498
49,2.1568740001958386
50,-55.54867230834324
51,0.0
52,6.4817646374327325
53,2.583289281317001
54,0.9068914310161822
55,2.2375706972122686
56,-314.1986390886439
57,1.470253554539789
58,2.1568189726425486
59,-55.53112523690622
60,0.0
61,7.188206467235574
62,7.215367671409673
63,1.0649566452834576
64,6.605866149944584
65,-0.21650062088261712
66,0.895164538265891
67,2.4005566505052585
68,-2543.241909097879
69,4.104916918226421
70,0.0
71,0.0
72,0.0
73,5.244031829957635
74,3.79421336186698
75,1.396404415422866
76,1.9263942184849094
77,-88.80490956736224
78,1.381332659155974
79,2.0261615002248416
80,0.32384246371029335
81,6.829441273134797
82,0.0
83,-68.22426409391633
84,0.0
85,-62.58497800929275
2,1, 4, 1, 0, 1,30.00,45.00,Tuesday
7,3.875
8,-4.291005668255764
9,0.0
10,0.0
11,19.12
12,0.0
13,0.0
14,0.0
15,0.0
16,0.0
17,0.0
18,0.0
19,0.0
20,0.0
21,0.0
22,0.0
23,0.0
24,-101.9236927716991
25,6.4285408346723205
26,2.35821648436628
27,0.9070440328196427
28,2.4645369938886006
29,-322.04405055437945
30,1.4581492929613649
31,2.155868938769857
32,-56.18692363422043
33,0.0
34,6.431015141637715
35,2.5046641055743346
36,0.9139595918258041
37,3.218116955257792
38,-424.5269158849251
39,1.4581448489249405
40,2.1558625285475332
41,-60.06568105313343
42,0.0
43,6.431803459343274
44,2.5091073120673193
45,0.9212259233284076
46,3.2304519189035483
47,-425.55238321639337
48,1.4571704635519027
49,2.1544570383825024
50,-59.83116227489761
51,0.0
52,6.4215386123646185
53,2.3649574502269983
54,0.9211701880492762
55,2.4863504982270728
56,-382.9400929490478
57,1.4571734295480359
58,2.1544613166624758
59,-66.1692986270706
60,0.0
61,7.159706241890432
62,7.188206467235574
63,1.080085199363317
64,6.54335911000335
65,-0.8505893127949214
66,0.922562377972482
67,2.6817333411139064
68,-3242.4780442366105
69,4.05785109594806
70,0.0
71,0.0
72,0.0
73,5.103933539222567
74,3.564990240984116
75,1.4103179387853038
76,1.4830221208717769
77,-97.26919540306922
78,1.369203239185837
79,2.0241200771074412
80,1.7976232559156664
81,6.782388057804741
82,0.0
83,-73.13802301083285
84,0.0
85,-70.08138461243334
2,1, 4, 1, 0, 1,45.00,60.00,Tuesday
7,3.9
8,-5.720397049500946
9,0.0
10,0.0
11,19.12
12,0.0
13,0.0
14,0.0
15,0.0
16,0.0
17,0.0
18,0.0
19,0.0
20,0.0
21,0.0
22,0.0
23,0.0
24,-106.80705148717014
25,6.369378353326
26,2.1619161559844584
27,0.9265879246085843
28,2.727919243312138
29,-385.51350741131336
30,1.4440227132698453
31,2.1521276823741657
32,-64.30058132396691
33,0.0
34,6.371406216385445
35,2.3165932012528865
36,0.924423122453598
37,3.4553787719951954
38,-502.30518524037177
39,1.4452030494034673
40,2.1538362923674965
41,-69.37486448548694
42,0.0
43,6.371341115098693
44,2.3163300082470153
45,0.923731279356911
46,3.4549907571955396
47,-502.24028320737574
48,1.4452388739215407
49,2.1538881503094682
50,-69.38810388287641
51,0.0
52,6.360894354457331
53,2.160966061900877
54,0.9326600755374332
55,2.7269091460344677
56,-456.0745294265222
57,1.4440770254068116
58,2.1522063029605785
59,-76.15785404586032
60,0.0
61,7.129856921122102
62,7.159706241890432
63,1.0983914891143298
64,6.480577059737383
65,-1.439573419953513
66,0.943346872164519
67,2.9579281916528624
68,-3988.710446041877
69,4.011762747995111
70,0.0
71,0.0
72,0.0
73,4.976666475298998
74,3.360068112210797
75,1.4270466045577679
76,1.7732534648562734
77,-106.71415670592057
78,1.3568560444630495
79,2.0218829976735964
80,3.1278013502262403
81,6.7324404922442955
82,0.0
83,-75.48790830400048
84,0.0
85,-74.4044187435459
2,1, 4, 1, 0, 2, 0.00,15.00,Tuesday
7,3.8249999999999997
8,-6.240634339670748
9,0.0
10,0.0
11,19.12
12,0.0
13,0.0
14,0.0
15,0.0
16,0.0
17,0.0
18,0.0
19,0.0
20,0.0
21,0.0
22,0.0
23,0.0
24,-109.1244140189205
25,6.319197795787209
26,2.0235384098963
27,0.9345625190511405
28,2.795923485194382
29,-405.26057193353535
30,1.4383399994585802
31,2.1489619389575654
32,-66.55411535067428
33,0.0
34,6.321271268068892
35,2.1815856062422916
36,0.9328192873921515
37,3.5177388516831716
38,-526.6106872998537
39,1.4395839143841804
40,2.1507645610924357
41,-71.90982622959129
42,0.0
43,6.321276392864963
44,2.1816048679262123
45,0.9328753523239539
46,3.5177611893174583
47,-526.6155627348344
48,1.439581796980918
49,2.150761492670233
50,-71.90887819009143
51,0.0
52,6.310618428821911
53,2.0231244773929986
54,0.9417861280891583
55,2.796058917672435
56,-479.5874157243103
57,1.438332361704499
58,2.1489508706250184
59,-78.79862517018765
60,0.0
61,7.099577637014743
62,7.129856921122102
63,1.1175574363412206
64,6.432375113501409
65,-1.6881528438377273
66,0.9599374898999045
67,3.0344410534236275
68,-4215.723759761946
69,3.9870714847019055
70,0.0
71,0.0
72,0.0
73,4.890362989877303
74,3.2366382008202663
75,1.4378936614782871
76,1.8607190126441706
77,-110.31574359080493
78,1.3514668851586926
79,2.018819113912084
80,3.404690301427186
81,6.683077164161659
82,0.0
83,-71.37183784673866
84,0.0
85,-73.5472630728318
2,1, 4, 1, 0, 2,15.00,30.00,Tuesday
7,3.75
8,-6.763931550078951
9,0.0
10,0.0
11,19.12
12,0.0
13,0.0
14,0.0
15,0.0
16,0.0
17,0.0
18,0.0
19,0.0
20,0.0
21,0.0
22,0.0
23,0.0
24,-111.62619818130209
25,6.2674850937131
26,1.883359498142051
27,0.93526320689558
28,2.855030282195541
29,-424.7309936652994
30,1.433113949996219
31,2.1464736273028957
32,-68.88910679707139
33,0.0
34,6.269655426783519
35,2.045681275717699
36,0.9334833702859822
37,3.5747817768324843
38,-550.8514888444131
39,1.4343824987034872
40,2.148313975673402
41,-74.49810827085079
42,0.0
43,6.26965502464494
44,2.0456797964852464
45,0.9334789628264876
46,3.574780197830104
47,-550.8511152364418
48,1.434382653365302
49,2.1483142000478104
50,-74.49818090528504
51,0.0
52,6.258702139297177
53,1.8828893040825334
54,0.9425565743445379
55,2.855086962901087
56,-502.6199372851017
57,1.4331106289040885
58,2.14646880919537
59,-81.56524790635673
60,0.0
61,7.068384108695016
62,7.099577637014743
63,1.1351669722971665
64,6.3821864764707135
65,-1.9454679837956996
66,0.9584597420111016
67,3.1027324358261765
68,-4442.91754716834
69,3.969992991225323
70,0.0
71,0.0
72,0.0
73,4.805167475414521
74,3.1115708793814747
75,1.4447301357872167
76,1.9107189240360416
77,-113.85787482285083
78,1.3466842742660308
79,2.0166489050875196
80,3.6904113790170148
81,6.635852001626677
82,0.0
83,-67.99715651601917
84,0.0
85,-70.37362469319676
2,1, 4, 1, 0, 2,30.00,45.00,Tuesday
7,3.6750000000000003
8,-7.290331007743134
9,0.0
10,0.0
11,19.12
12,0.0
13,0.0
14,0.0
15,0.0
16,0.0
17,0.0
18,0.0
19,0.0
20,0.0
21,0.0
22,0.0
23,0.0
24,-114.11278546565185
25,6.216476594707995
26,1.7442843200995917
27,0.9390922181437272
28,2.9141355375982663
29,-444.5137463338545
30,1.4278633910466725
31,2.1439663475632997
32,-71.17707797509993
33,0.0
34,6.206211738275731
35,1.7347996671331636
36,0.937244279070653
37,2.892575376870795
38,-523.8883921937712
39,1.4291636977398252
40,2.145854867022253
41,-84.7427043906142
42,0.0
43,6.218713083121345
44,1.9105643351346948
45,0.9372446221486344
46,3.6312592611769485
47,-575.3681328786737
48,1.429163685885448
49,2.145854849805514
50,-77.0455098331536
51,0.0
52,6.219762411796121
53,1.9164994633757455
54,0.9464972505168817
55,3.6442628929606915
56,-576.5697461230669
57,1.4278596259825251
58,2.1439608792812264
59,-76.71782270302639
60,0.0
61,7.036427067335111
62,7.068384108695016
63,1.1495486723357036
64,6.332655362152629
65,-2.199450285901285
66,0.9622215144527723
67,3.171074388988285
68,-4673.65956433377
69,3.9527033232463227
70,0.0
71,0.0
72,0.0
73,4.720007182266897
74,2.9867983293094085
75,1.451860788610007
76,1.9600916817440053
77,-117.41670609311527
78,1.3418794573402293
79,2.0144624039109558
80,3.973811772541091
81,6.5903685803785
82,0.0
83,-66.67746183306097
84,0.0
85,-67.78931849888757
2,1, 4, 1, 0, 2,45.00,60.00,Tuesday
7,3.6
8,-7.819875967085466
9,0.0
10,0.0
11,19.12
12,0.0
13,0.0
14,0.0
15,0.0
16,0.0
17,0.0
18,0.0
19,0.0
20,0.0
21,0.0
22,0.0
23,0.0
24,-116.60422981202412
25,6.16589614841924
26,1.6059927055584258
27,0.943764037323431
28,2.972861698280415
29,-464.53525275376217
30,1.4226114790471236
31,2.1414739073941194
32,-73.43108907308911
33,0.0
34,6.156845549782225
35,1.6061483724743328
36,0.952322904535705
37,2.9740621412645254
38,-549.8912248732881
39,1.4225356825307467
40,2.1413636989718303
41,-86.90995499253931
42,0.0
43,6.168186200064136
44,1.7760203628137305
45,0.941878519601545
46,3.6870620282154145
47,-600.101916968711
48,1.4239408790567119
49,2.1434068456896926
50,-79.56222716849449
51,0.0
52,6.168100586181608
53,1.7756744297578966
54,0.9409912536930087
55,3.6866072053947283
56,-600.0212013214099
57,1.4239883502020796
58,2.1434758679001855
59,-79.5799217565076
60,0.0
61,7.0037812150438885
62,7.036427067335111
63,1.1614089885467613
64,6.283515548647312
65,-2.4507343697564985
66,0.9673125268422385
67,3.2392131430787705
68,-4907.6267341716575
69,3.935471141349884
70,0.0
71,0.0
72,0.0
73,4.635489309547779
74,2.8626150557189476
75,1.4590884514527467
76,2.0082471667365995
77,-121.00373814099461
78,1.3370668676464337
79,2.0122807331608263
80,4.253207170015424
81,6.545730219381756
82,0.0
83,-66.34571984744792
84,0.0
85,-66.54060824485292
2,1, 4, 1, 0, 3, 0.00,15.00,Tuesday
7,3.6
8,-7.997097567027481
9,0.0
10,0.0
11,19.12
12,0.0
13,0.0
14,0.0
15,0.0
16,0.0
17,0.0
18,0.0
19,0.0
20,0.0
21,0.0
22,0.0
23,0.0
24,-115.95612872755535
25,6.1392001056184995
26,1.6323560936264891
27,0.9487373791304972
28,3.1928376801438976
29,-484.7107110287781
30,1.4201244984427772
31,2.1398675066515542
32,-72.40338671144012
33,0.0
34,6.129948932693144
35,1.6318124118774604
36,0.9562137400184735
37,3.1928205282374282
38,-573.599595694134
39,1.4201257410989852
40,2.1398693142803418
41,-85.72854311873745
42,0.0
43,6.140812115013438
44,1.793626166523407
45,0.9468268618591447
46,3.8975456024953434
47,-621.4086576887498
48,1.4214823611803713
49,2.14184270611444
50,-78.7346044954464
51,0.0
52,6.140818499675603
53,1.7936496456177327
54,0.9468984256089209
55,3.8975686460352517
56,-621.4142817661233
57,1.4214795973604741
58,2.1418386857847818
59,-78.73343042077946
60,0.0
61,6.972056152903516
62,7.0037812150438885
63,1.1717254359229197
64,6.256813731524174
65,-2.3259501066112787
66,0.9729120358609589
67,3.503348919624079
68,-5171.243275911083
69,3.92603435219682
70,0.0
71,0.0
72,0.0
73,4.600299493171633
74,2.835572676444599
75,1.4554957809299922
76,2.1706669780042853
77,-122.12434376716419
78,1.334841123253336
79,2.0109262143910156
80,4.408540039979501
81,6.504851523951216
82,0.0
83,-56.68594731481117
84,0.0
85,-60.945284618522244
2,1, 4, 1, 0, 3,15.00,30.00,Tuesday
7,3.6
8,-8.174675232709944
9,0.0
10,0.0
11,19.12
12,0.0
13,0.0
14,0.0
15,0.0
16,0.0
17,0.0
18,0.0
19,0.0
20,0.0
21,0.0
22,0.0
23,0.0
24,-115.61314973233172
25,6.110214572237907
26,1.6507963234721879
27,0.9367789565150169
28,3.3976498233906374
29,-503.3755293967371
30,1.4189511389835556
31,2.140173661883783
32,-71.73333676638214
33,0.0
34,6.10096287088042
35,1.6503110744629037
36,0.9446135831862175
37,3.397702378087369
38,-595.7080545433164
39,1.4189468002112635
40,2.1401673477708845
41,-84.93252548972929
42,0.0
43,6.111363952716831
44,1.8048976549998377
45,0.935400301882622
46,4.092959847619368
47,-641.3901575981704
48,1.4202386440156007
49,2.1420473243375744
50,-78.24939422605244
51,0.0
52,6.111363485863097
53,1.8048960274293349
54,0.935394833381425
55,4.092958523939034
56,-641.3897687601535
57,1.4202388315361856
58,2.142047597227989
59,-78.24947534389449
60,0.0
61,6.940301938085595
62,6.972056152903516
63,1.1794792172473099
64,6.228120180812537
65,-2.2186675374803206
66,0.9550523987153442
67,3.764319602929586
68,-5429.453660926958
69,3.9249212431140945
70,0.0
71,0.0
72,0.0
73,4.572136089589833
74,2.8116769530067813
75,1.453004829204179
76,2.302303030089588
77,-123.36862964851133
78,1.3333429457938115
79,2.010631359475376
80,4.545760355922498
81,6.468991106364696
82,0.0
83,-49.09744058335026
84,0.0
85,-53.47061694790968
2,1, 4, 1, 0, 3,30.00,45.00,Tuesday
7,3.6
8,-8.352610637864302
9,0.0
10,0.0
11,19.12
12,0.0
13,0.0
14,0.0
15,0.0
16,0.0
17,0.0
18,0.0
19,0.0
20,0.0
21,0.0
22,0.0
23,0.0
24,-115.2813436073444
25,6.083525648173295
26,1.6700525112168778
27,0.9308707462052661
28,3.6076836449513534
29,-522.22019534862
30,1.4177128480997616
31,2.1403878295289562
32,-71.0299279198136
33,0.0
34,6.074254537315459
35,1.6695735154606621
36,0.9388043329268079
37,3.6077243564503862
38,-618.016698099392
39,1.4177089769704387
40,2.140382193528072
41,-84.09965038538775
42,0.0
43,6.084083025510379
44,1.8155131384977454
45,0.929875633518237
46,4.285460883181913
47,-661.1580600749542
48,1.418942677221945
49,2.1421783330116937
50,-77.79009673320834
51,0.0
52,6.08408305893887
53,1.8155132506872134
54,0.9298760381442259
55,4.285460959728782
56,-661.1580866501914
57,1.4189426642279455
58,2.1421783140938673
59,-77.7900911415828
60,0.0
61,6.90876469789165
62,6.940301938085595
63,1.1829245748069557
64,6.201483927366559
65,-2.115496596349509
66,0.9457638451572906
67,4.028634634522141
68,-5683.52709829857
69,3.923415613684694
70,0.0
71,0.0
72,0.0
73,4.544761843035303
74,2.788665914998205
75,1.4513987701581594
76,2.4335976533189823
77,-124.64783583458673
78,1.3318670646398019
79,2.0103708459475698
80,4.6778667116384085
81,6.437116566580429
82,0.0
83,-45.0689861904232
84,0.0
85,-47.53290549505026
2,1, 4, 1, 0, 3,45.00,60.00,Tuesday
7,3.6
8,-8.530905468618926
9,0.0
10,0.0
11,19.12
12,0.0
13,0.0
14,0.0
15,0.0
16,0.0
17,0.0
18,0.0
19,0.0
20,0.0
21,0.0
22,0.0
23,0.0
24,-114.98510614982274
25,6.058346782122495
26,1.6891524789420826
27,0.926364149853357
28,3.8212434914322464
29,-541.0297547272382
30,1.416479376400876
31,2.1406114942270964
32,-70.33245427821342
33,0.0
34,6.04906196912514
35,1.6886835490794865
36,0.9343907859589164
37,3.821277933184006
38,-640.2847186658732
39,1.4164755564575708
40,2.14060593033727
41,-83.27361020825451
42,0.0
43,6.0582543926945
44,1.825083647661338
45,0.925877140808829
46,4.47478587193611
47,-680.6190246679378
48,1.417639827523523
49,2.142301723460587
50,-77.37615386432347
51,0.0
52,6.058254390340499
53,1.8250836400283619
54,0.9258771115852821
55,4.47478586762616
56,-680.6190228785648
57,1.4176398284188645
58,2.142301724764674
59,-77.37615424513928
60,0.0
61,6.877527364788343
62,6.90876469789165
63,1.183206699187376
64,6.176214462142915
65,-2.0172327531707124
66,0.938857607680807
67,4.295326651905039
68,-5933.115900851121
69,3.921813750160025
70,0.0
71,0.0
72,0.0
73,4.519148551796889
74,2.767012693617346
75,1.4501964182240499
76,2.565043170058176
77,-125.98047721371671
78,1.3303965058717309
79,2.010120005739647
80,4.802147664508523
81,6.407702919500881
82,0.0
83,-42.78634710265459
84,0.0
85,-43.867823241012765
2,1, 4, 1, 0, 4, 0.00,15.00,Tuesday
7,3.625
8,-8.233947202588524
9,0.0
10,0.0
11,19.12
12,0.0
13,0.0
14,0.0
15,0.0
16,0.0
17,0.0
18,0.0
19,0.0
20,0.0
21,0.0
22,0.0
23,0.0
24,-112.55151896786312
25,6.042107440329634
26,1.7674941209024342
27,0.9226510874510547
28,3.875860187745764
29,-532.8692942981021
30,1.4189427692508836
31,2.1411251442181403
32,-68.3802523532209
33,0.0
34,6.032970795871818
35,1.7670208608739573
36,0.9307534709308621
37,3.8758925906389425
38,-630.62378740847
39,1.4189390265187765
40,2.1411196964177095
41,-80.96297073973145
42,0.0
43,6.0417965511191305
44,1.8975188929109006
45,0.9227324139102423
46,4.522292214934186
47,-669.219010037587
48,1.4200280591732677
49,2.142704847844683
50,-75.31645010967897
51,0.0
52,6.041796551280583
53,1.8975188934360265
54,0.9227324159821856
55,4.52229221521457
56,-669.2190101616746
57,1.420028059112306
58,2.1427048477559376
59,-75.31645008359668
60,0.0
61,6.847100495859701
62,6.877527364788343
63,1.1816797242404682
64,6.158428850954815
65,-1.829371414299903
66,0.9333209780791497
67,4.362120254928747
68,-5846.612857744255
69,3.93046591201374
70,0.0
71,0.0
72,0.0
73,4.528990960550402
74,2.8132237976586794
75,1.4419766916697838
76,2.6074778420593723
77,-123.51721061469007
78,1.3323972708939906
79,2.0101570349408173
80,4.681674961871464
81,6.380897406950291
82,0.0
83,-37.96011319268705
84,0.0
85,-39.98205589669594
2,1, 4, 1, 0, 4,15.00,30.00,Tuesday
7,3.6500000000000004
8,-7.937984219818816
9,0.0
10,0.0
11,19.12
12,0.0
13,0.0
14,0.0
15,0.0
16,0.0
17,0.0
18,0.0
19,0.0
20,0.0
21,0.0
22,0.0
23,0.0
24,-110.28723867707184
25,6.026412895609317
26,1.8433648219670566
27,0.9132539351515068
28,3.926677478960963
29,-524.298925872209
30,1.4218753264421657
31,2.14232732264758
32,-66.5397264196669
33,0.0
34,6.017426199336533
35,1.8428992985329067
36,0.9213909053056646
37,3.9267086431797624
38,-620.4810692109176
39,1.421871544962608
40,2.142321822124631
41,-78.78399594344916
42,0.0
43,6.025907177593772
44,1.9680311245872144
45,0.9135331976453358
46,4.567377230305995
47,-657.5177549701016
48,1.4229145943136703
49,2.143839028503002
50,-73.36508958582291
51,0.0
52,6.025907177582791
53,1.9680311245516442
54,0.9135331975003526
55,4.567377230288262
56,-657.5177549616782
57,1.4229145943178687
58,2.1438390285091105
59,-73.36508958758819
60,0.0
61,6.817243917559977
62,6.847100495859701
63,1.178635803242465
64,6.14130409256658
65,-1.6459675491131927
66,0.9210378103840732
67,4.428861349277356
68,-5759.3986116911
69,3.941098948386163
70,0.0
71,0.0
72,0.0
73,4.541120218818833
74,2.8602517728196517
75,1.434445132919937
76,2.6340805404644643
77,-121.0867247413583
78,1.33490236312587
79,2.0109338878323864
80,4.556415507224093
81,6.356744858311279
82,0.0
83,-34.024349984677336
84,0.0
85,-36.02829016981196
2,1, 4, 1, 0, 4,30.00,45.00,Tuesday
7,3.6750000000000003
8,-7.643008771424832
9,0.0
10,0.0
11,19.12
12,0.0
13,0.0
14,0.0
15,0.0
16,0.0
17,0.0
18,0.0
19,0.0
20,0.0
21,0.0
22,0.0
23,0.0
24,-108.06224127589816
25,6.012021581031091
26,1.9188721127027406
27,0.9055899026309837
28,3.978114624682049
29,-515.6457948513822
30,1.424784930372663
31,2.1435012602830263
32,-64.7096693645658
33,0.0
34,6.003184089229043
35,1.9184166917897116
36,0.9137287420433006
37,3.9781437331974376
38,-610.2411252543674
39,1.424781206644125
40,2.143495847366303
41,-76.61731422446822
42,0.0
43,6.011318176946865
44,2.0382199817508786
45,0.9060518012351186
46,4.612557319552932
47,-645.7292369570708
48,1.425782444825777
49,2.14495126779886
50,-71.42504714431242
51,0.0
52,6.011318176947587
53,2.0382199817532567
54,0.9060518012451426
55,4.6125573195540275
56,-645.7292369576385
57,1.4257824448254937
58,2.1449512677984326
59,-71.4250471441941
60,0.0
61,6.7880020533645755
62,6.817243917559977
63,1.173809165565753
64,6.1254320844391685
65,-1.4648514112400444
66,0.9112353137162162
67,4.4959667702271044
68,-5670.289783495893
69,3.951630734410988
70,0.0
71,0.0
72,0.0
73,4.554018082895254
74,2.9075590111538077
75,1.427184196570487
76,2.6606084613044048
77,-118.66796903314585
78,1.3374101021571885
79,2.0117198556112683
80,4.429452086294914
81,6.334741889783575
82,0.0
83,-31.468960906239204
84,0.0
85,-32.82451420426465
2,1, 4, 1, 0, 4,45.00,60.00,Tuesday
7,3.7
8,-7.349013202905894
9,0.0
10,0.0
11,19.12
12,0.0
13,0.0
14,0.0
15,0.0
16,0.0
17,0.0
18,0.0
19,0.0
20,0.0
21,0.0
22,0.0
23,0.0
24,-105.8762708169452
25,5.9986832691642205
26,1.993878140925276
27,0.8985801162975456
28,4.030016935645156
29,-506.8820440611752
30,1.4276884182200063
31,2.14467143622945
32,-62.895992028695396
33,0.0
34,5.989995545636868
35,1.9934325595505955
36,0.9067087125515947
37,4.030043857620383
38,-599.8701763359247
39,1.4276847713361496
40,2.1446661385264463
41,-74.47003308453614
42,0.0
43,5.997785796832049
44,2.1079870217145924
45,0.8992324936490854
46,4.657774840144004
47,-633.8305397493153
48,1.4286444041815176
49,2.1460601574320695
50,-69.50131904925553
51,0.0
52,5.99778579683201
53,2.107987021714441
54,0.8992324936484163
55,4.657774840143939
56,-633.8305397492771
57,1.428644404181535
58,2.146060157432107
59,-69.50131904926339
60,0.0
61,6.759400899263081
62,6.7880020533645755
63,1.1676260195074355
64,6.110589224498786
65,-1.2860672215485471
66,0.9025080933126961
67,4.5634166315090114
68,-5579.3045842657
69,3.9621091738065584
70,0.0
71,0.0
72,0.0
73,4.567780301119797
74,2.955184866985121
75,1.420065198633695
76,2.687179357700937
77,-116.2625060564897
78,1.3399164928778005
79,2.0125090811314643
80,4.300555869034791
81,6.3142762570440825
82,0.0
83,-29.688967448761716
84,0.0
85,-30.533470014022186
2,1, 4, 1, 0, 5, 0.00,15.00,Tuesday
7,3.7
8,-9.008128500723217
9,0.0
10,0.0
11,19.12
12,0.0
13,0.0
14,0.0
15,0.0
16,0.0
17,0.0
18,0.0
19,0.0
20,0.0
21,0.0
22,0.0
23,0.0
24,-112.24251080186845
25,5.93661788742667