Program Version,EnergyPlus, Version 23.2.0-7636e6b3e9, YMD=2026.07.21 16:30
1,5,Environment Title[],Latitude[deg],Longitude[deg],Time Zone[],Elevation[m]
2,8,Day of Simulation[],Month[],Day of Month[],DST Indicator[1=yes 0=no],Hour[],StartMinute[],EndMinute[],DayType
3,5,Cumulative Day of Simulation[],Month[],Day of Month[],DST Indicator[1=yes 0=no],DayType  ! When Daily Report Variables Requested
4,2,Cumulative Days of Simulation[],Month[]  ! When Monthly Report Variables Requested
5,1,Cumulative Days of Simulation[] ! When Run Period Report Variables Requested
6,1,Calendar Year of Simulation[] ! When Annual Report Variables Requested
7,1,Environment,Site Outdoor Air Drybulb Temperature [C] !TimeStep
8,1,ZONE ONE,Zone Windows Total Transmitted Solar Radiation Rate [W] !TimeStep
9,1,ZN001:WALL001,Surface Outside Face Sunlit Fraction [] !TimeStep
10,1,ZN001:WALL001,Surface Outside Face Incident Solar Radiation Rate per Area [W/m2] !TimeStep
11,1,ZN001:WALL001:WIN001,Surface Outside Face Sunlit Fraction [] !TimeStep
12,1,ZN001:WALL001:WIN001,Surface Outside Face Incident Solar Radiation Rate per Area [W/m2] !TimeStep
13,1,ZN001:WALL001:WIN001,Surface Window Transmitted Solar Radiation Rate [W] !TimeStep
14,1,ZN001:WALL001,Surface Inside Face Temperature [C] !TimeStep
15,1,ZN001:WALL001,Surface Outside Face Temperature [C] !TimeStep
16,1,ZN001:WALL002,Surface Outside Face Temperature [C] !TimeStep
17,1,ZN001:WALL003,Surface Outside Face Temperature [C] !TimeStep
18,1,ZN001:WALL004,Surface Outside Face Temperature [C] !TimeStep
19,1,ZN001:FLR001,Surface Outside Face Temperature [C] !TimeStep
20,1,ZN001:ROOF001,Surface Outside Face Temperature [C] !TimeStep
21,1,ZN001:WALL001:WIN001,Surface Inside Face Temperature [C] !TimeStep
22,1,ZN001:WALL001:WIN001,Surface Outside Face Temperature [C] !TimeStep
23,1,ZONE ONE,Zone Mean Air Temperature [C] !TimeStep
End of Data Dictionary
1,DENVER STAPLETON INTL ARPT ANN HTG 99% CONDNS DB,  55.95,  -3.37,   0.00,  41.10
2,1,12,21, 0, 1, 0.00,15.00,WinterDesignDay
7,-16.0
8,0.0
9,0.0
10,0.0
11,0.0
12,0.0
13,0.0
14,-19.066034151898194
15,-18.250737604611455
16,-18.25070639603462
17,-18.20003854169232
18,-18.25070639603462
19,-19.15053461399669
20,-21.703891327634178
21,-18.941908162163998
22,-18.78235942543762
23,-19.145680577424066
2,1,12,21, 0, 1,15.00,30.00,WinterDesignDay
7,-16.0
8,0.0
9,0.0
10,0.0
11,0.0
12,0.0
13,0.0
14,-19.066051116607365
15,-18.250738355186158
16,-18.25070714497956
17,-18.200039274952353
18,-18.25070714497956
19,-19.150555495374164
20,-21.703891647053187
21,-18.94191897010319
22,-18.78236384273788
23,-19.1456984427456
2,1,12,21, 0, 1,30.00,45.00,WinterDesignDay
7,-16.0
8,0.0
9,0.0
10,0.0
11,0.0
12,0.0
13,0.0
14,-19.066068009162
15,-18.25073910256853
16,-18.250707890739132
17,-18.200040005093708
18,-18.250707890739132
19,-19.150576287911086
20,-21.703891965113616
21,-18.94192973208453
22,-18.782368241254005
23,-19.145716232128272
2,1,12,21, 0, 1,45.00,60.00,WinterDesignDay
7,-16.0
8,0.0
9,0.0
10,0.0
11,0.0
12,0.0
13,0.0
14,-19.066084829868835
15,-18.25073984677217
16,-18.250708633326873
17,-18.20004073212967
18,-18.250708633326873
19,-19.15059699198541
20,-21.70389228182124
21,-18.941940448297913
22,-18.782372621064525
23,-19.145733945894477
2,1,12,21, 0, 2, 0.00,15.00,WinterDesignDay
7,-16.0
8,0.0
9,0.0
10,0.0
11,0.0
12,0.0
13,0.0
14,-19.066101579033333
15,-18.250740587810565
16,-18.250709372756237
17,-18.200041456073414
18,-18.250709372756237
19,-19.150617607973444
20,-21.703892597181774
21,-18.94195111894541
22,-18.782376982250412
23,-19.145751584365254
2,1,12,21, 0, 2,15.00,30.00,WinterDesignDay
7,-16.0
8,0.0
9,0.0
10,0.0
11,0.0
12,0.0
13,0.0
14,-19.066118256959598
15,-18.250741325697177
16,-18.250710109040686
17,-18.200042176938084
18,-18.250710109040686
19,-19.15063813624991
20,-21.70389291120099
21,-18.941961744218077
22,-18.782381324890935
23,-19.145769147860296
2,1,12,21, 0, 2,30.00,45.00,WinterDesignDay
7,-16.0
8,0.0
9,0.0
10,0.0
11,0.0
12,0.0
13,0.0
14,-19.06613486395048
15,-18.250742060445404
16,-18.25071084219357
17,-18.200042894736782
18,-18.25071084219357
19,-19.15065857718793
20,-21.703893223884577
21,-18.94197232431216
22,-18.782385649065077
23,-19.145786636697952
2,1,12,21, 0, 2,45.00,60.00,WinterDesignDay
7,-16.0
8,0.0
9,0.0
10,0.0
11,0.0
12,0.0
13,0.0
14,-19.0661514003076
15,-18.250742792068614
16,-18.25071157222821
17,-18.200043609482545
18,-18.25071157222821
19,-19.15067893115903
20,-21.70389353523821
21,-18.941982859414793
22,-18.782389954852107
23,-19.145804051195206
2,1,12,21, 0, 3, 0.00,15.00,WinterDesignDay
7,-16.0
8,0.0
9,0.0
10,0.0
11,0.0
12,0.0
13,0.0
14,-19.06616786633118
15,-18.25074352058005
16,-18.25071229915785
17,-18.20004432118835
18,-18.25071229915785
19,-19.15069919853319
20,-21.70389384526755
21,-18.941993349715574
22,-18.782394242325637
23,-19.145821391667702
2,1,12,21, 0, 3,15.00,30.00,WinterDesignDay
7,-16.0
8,0.0
9,0.0
10,0.0
11,0.0
12,0.0
13,0.0
14,-19.06618426232029
15,-18.250744245992973
16,-18.250713022995715
17,-18.2000450298671
18,-18.250713022995715
19,-19.15071937967878
20,-21.70389415397821
21,-18.942003795414536
22,-18.782398511572694
23,-19.14583865842976
2,1,12,21, 0, 3,30.00,45.00,WinterDesignDay
7,-16.0
8,0.0
9,0.0
10,0.0
11,0.0
12,0.0
13,0.0
14,-19.066200588572617
15,-18.250744968320532
16,-18.250713743754925
17,-18.200045735531702
18,-18.250713743754925
19,-19.150739474962624
20,-21.703894461375825
21,-18.942014196690195
22,-18.782402762660297
23,-19.145855851794355
2,1,12,21, 0, 3,45.00,60.00,WinterDesignDay
7,-16.0
8,0.0
9,0.0
10,0.0
11,0.0
12,0.0
13,0.0
14,-19.06621684538465
15,-18.250745687575854
16,-18.250714461448577
17,-18.20004643819494
18,-18.250714461448577
19,-19.150759484749965
20,-21.703894767465943
21,-18.942024553738463
22,-18.782406995672943
23,-19.14587297207313
2,1,12,21, 0, 4, 0.00,15.00,WinterDesignDay
7,-16.0
8,0.0
9,0.0
10,0.0
11,0.0
12,0.0
13,0.0
14,-19.06623303305163
15,-18.250746403772013
16,-18.25071517608971
17,-18.200047137869575
18,-18.25071517608971
19,-19.150779409404535
20,-21.70389507225415
21,-18.94203486674138
22,-18.7824112106816
23,-19.145890019576406
2,1,12,21, 0, 4,15.00,30.00,WinterDesignDay
7,-16.0
8,0.0
9,0.0
10,0.0
11,0.0
12,0.0
13,0.0
14,-19.0662491518675
15,-18.25074711692199
16,-18.25071588769128
17,-18.200047834568316
18,-18.25071588769128
19,-19.15079924928847
20,-21.70389537574597
21,-18.942045135897047
22,-18.782415407771225
23,-19.14590699461322
2,1,12,21, 0, 4,30.00,45.00,WinterDesignDay
7,-16.0
8,0.0
9,0.0
10,0.0
11,0.0
12,0.0
13,0.0
14,-19.06626520212495
15,-18.250747827038747
16,-18.250716596266237
17,-18.20004852830383
18,-18.250716596266237
19,-19.15081900476239
20,-21.703895677946925
21,-18.942055361374514
22,-18.782419587008974
23,-19.145923897491265
2,1,12,21, 0, 4,45.00,60.00,WinterDesignDay
7,-16.0
8,0.0
9,0.0
10,0.0
11,0.0
12,0.0
13,0.0
14,-19.066281184115486
15,-18.250748534135184
16,-18.25071730182742
17,-18.200049219088687
18,-18.25071730182742
19,-19.150838676185387
20,-21.703895978862477
21,-18.942065543377907
22,-18.78242374847673
23,-19.14594072851696
2,1,12,21, 0, 5, 0.00,15.00,WinterDesignDay
7,-16.0
8,0.0
9,0.0
10,0.0
11,0.0
12,0.0
13,0.0
14,-19.066297098129322
15,-18.25074923822414
16,-18.250718004387675
17,-18.20004990693546
18,-18.250718004387675
19,-19.150858263915
20,-21.703896278498124
21,-18.942075682075398
22,-18.782427892243675
23,-19.145957487995396
2,1,12,21, 0, 5,15.00,30.00,WinterDesignDay
7,-16.0
8,0.0
9,0.0
10,0.0
11,0.0
12,0.0
13,0.0
14,-19.066312944455454
15,-18.250749939318396
16,-18.250718703959716
17,-18.200050591856616
18,-18.250718703959716
19,-19.150877768307282
20,-21.703896576859286
21,-18.94208577766352
22,-18.782432018391944
23,-19.145974176230396
2,1,12,21, 0, 5,30.00,45.00,WinterDesignDay
7,-16.0
8,0.0
9,0.0
10,0.0
11,0.0
12,0.0
13,0.0
14,-19.06632872338165
15,-18.250750637430684
16,-18.25071940055628
17,-18.20005127386461
18,-18.25071940055628
19,-19.150897189716744
20,-21.70389687395138
21,-18.942095830321108
22,-18.782436126994526
23,-19.145990793524483
2,1,12,21, 0, 5,45.00,60.00,WinterDesignDay
7,-16.0
8,0.0
9,0.0
10,0.0
11,0.0
12,0.0
13,0.0
14,-19.06634443519448
15,-18.250751332573678
16,-18.25072009419002
17,-18.20005195297181
18,-18.25072009419002
19,-19.150916528496413
20,-21.703897169779825
21,-18.942105840227413
22,-18.7824402181231
23,-19.1460073401789
2,1,12,21, 0, 6, 0.00,15.00,WinterDesignDay
7,-16.0
8,0.0
9,0.0
10,0.0
11,0.0
12,0.0
13,0.0
14,-19.066360080179262
15,-18.250752024760015
16,-18.2507207848735
17,-18.20005262919056
18,-18.2507207848735
19,-19.15093578499779
20,-21.70389746434997
21,-18.942115807565784
22,-18.782444291852528
23,-19.146023816493617
2,1,12,21, 0, 6,15.00,30.00,WinterDesignDay
7,-16.0
8,0.0
9,0.0
10,0.0
11,0.0
12,0.0
13,0.0
14,-19.066375658620114
15,-18.250752714002253
16,-18.2507214726193
17,-18.20005330253313
18,-18.2507214726193
19,-19.150954959570893
20,-21.70389775766717
21,-18.94212573252159
22,-18.782448348260743
23,-19.146040222767322
2,1,12,21, 0, 6,30.00,45.00,WinterDesignDay
7,-16.0
8,0.0
9,0.0
10,0.0
11,0.0
12,0.0
13,0.0
14,-19.066391170799957
15,-18.250753400312906
16,-18.250722157439885
17,-18.200053973011777
18,-18.250722157439885
19,-19.15097405256425
20,-21.703898049736768
21,-18.94213561527033
22,-18.782452387416754
23,-19.146056559297456
2,1,12,21, 0, 6,45.00,60.00,WinterDesignDay
7,-16.0
8,0.0
9,0.0
10,0.0
11,0.0
12,0.0
13,0.0
14,-19.066406617000485
15,-18.250754083704454
16,-18.250722839347706
17,-18.200054640638633
18,-18.250722839347706
19,-19.15099306432491
20,-21.703898340564045
21,-18.942145455995927
22,-18.782456409399202
23,-19.146072826380205
2,1,12,21, 0, 7, 0.00,15.00,WinterDesignDay
7,-16.0
8,0.0
9,0.0
10,0.0
11,0.0
12,0.0
13,0.0
14,-19.06642199750222
15,-18.25075476418929
16,-18.250723518355137
17,-18.200055305425863
18,-18.250723518355137
19,-19.15101199519844
20,-21.7038986301543
21,-18.94215525487232
22,-18.78246041427562
23,-19.146089024310488
2,1,12,21, 0, 7,15.00,30.00,WinterDesignDay
7,-16.0
8,0.0
9,0.0
10,0.0
11,0.0
12,0.0
13,0.0
14,-19.066437312584515
15,-18.250755441779788
16,-18.25072419447451
17,-18.200055967385513
18,-18.25072419447451
19,-19.151030845528947
20,-21.703898918512785
21,-18.942165012075208
22,-18.782464402120013
23,-19.146105153381964
2,1,12,21, 0, 7,30.00,45.00,WinterDesignDay
7,-16.0
8,0.0
9,0.0
10,0.0
11,0.0
12,0.0
13,0.0
14,-19.066452562525484
15,-18.250756116488237
16,-18.250724867718105
17,-18.200056626529612
18,-18.250724867718105
19,-19.15104961565906
20,-21.703899205644728
21,-18.942174727788654
22,-18.78246837300682
23,-19.146121213887046
2,1,12,21, 0, 7,45.00,60.00,WinterDesignDay
7,-16.0
8,0.0
9,0.0
10,0.0
11,0.0
12,0.0
13,0.0
14,-19.066467747602086
15,-18.2507567883269
16,-18.250725538098138
17,-18.200057282870137
18,-18.250725538098138
19,-19.151068305929964
20,-21.703899491555365
21,-18.942184402181567
22,-18.782472327004143
23,-19.14613720611692
2,1,12,21, 0, 8, 0.00,15.00,WinterDesignDay
7,-16.0
8,0.0
9,0.0
10,0.0
11,0.0
12,0.0
13,0.0
14,-19.066482868090088
15,-18.250757457307976
16,-18.250726205626805
17,-18.200057936418986
18,-18.250726205626805
19,-19.151086916681376
20,-21.70389977624987
21,-18.942194035438916
22,-18.782476264189768
23,-19.146153130361544
2,1,12,21, 0, 8,15.00,30.00,WinterDesignDay
7,-16.0
8,0.0
9,0.0
10,0.0
11,0.0
12,0.0
13,0.0
14,-19.066497924264105
15,-18.250758123443614
16,-18.250726870316225
17,-18.20005858718806
18,-18.250726870316225
19,-19.151105448251595
20,-21.703900059733435
21,-18.94220362772751
22,-18.782480184630458
23,-19.14616898690965
2,1,12,21, 0, 8,30.00,45.00,WinterDesignDay
7,-16.0
8,0.0
9,0.0
10,0.0
11,0.0
12,0.0
13,0.0
14,-19.066512916397578
15,-18.250758786745905
16,-18.25072753217845
17,-18.20005923518915
18,-18.25072753217845
19,-19.151123900977463
20,-21.703900342011192
21,-18.94221317922384
22,-18.78248408839812
23,-19.146184776048727
2,1,12,21, 0, 8,45.00,60.00,WinterDesignDay
7,-16.0
8,0.0
9,0.0
10,0.0
11,0.0
12,0.0
13,0.0
14,-19.06652784476279
15,-18.250759447226912
16,-18.250728191225516
17,-18.20005988043404
18,-18.250728191225516
19,-19.15114227519439
20,-21.70390062308827
21,-18.942222690100152
22,-18.782487975563697
23,-19.146200498065053
2,1,12,21, 0, 9, 0.00,15.00,WinterDesignDay
7,-16.0
8,0.0
9,0.0
10,0.0
11,0.0
12,0.0
13,0.0
14,-19.066542709630863
15,-18.25076010489862
16,-18.250728847469382
17,-18.200060522934436
18,-18.250728847469382
19,-19.151160571236357
20,-21.70390090296977
21,-18.94223216053581
22,-18.782491846201907
23,-19.146216153243692
2,1,12,21, 0, 9,15.00,30.00,WinterDesignDay
7,-16.0
8,0.0
9,0.0
10,0.0
11,0.0
12,0.0
13,0.0
14,-19.066557511271778
15,-18.25076075977297
16,-18.250729500921985
17,-18.200061162702035
18,-18.250729500921985
19,-19.151178789435935
20,-21.703901181660797
21,-18.942241590691992
22,-18.782495700375478
23,-19.146231741868515
2,1,12,21, 0, 9,30.00,45.00,WinterDesignDay
7,-16.0
8,0.0
9,0.0
10,0.0
11,0.0
12,0.0
13,0.0
14,-19.066572249954337
15,-18.25076141186185
16,-18.250730151595164
17,-18.20006179974842
18,-18.250730151595164
19,-19.15119693012428
20,-21.703901459166385
21,-18.942250980750373
22,-18.782499538161545
23,-19.146247264222175
2,1,12,21, 0, 9,45.00,60.00,WinterDesignDay
7,-16.0
8,0.0
9,1.0
10,0.0
11,1.0
12,0.0
13,0.0
14,-19.06658692594625
15,-18.25076206117713
16,-18.250730799500772
17,-18.20006243408518
18,-18.250730799500772
19,-19.15121499363113
20,-21.703901735491584
21,-18.942260330871818
22,-18.782503359624002
23,-19.146262720586137
2,1,12,21, 0,10, 0.00,15.00,WinterDesignDay
7,-16.0
8,0.0
9,1.0
10,0.0
11,1.0
12,0.0
13,0.0
14,-19.066601539514057
15,-18.250762707730573
16,-18.250731444650533
17,-18.20006306572383
18,-18.250731444650533
19,-19.15123298028481
20,-21.703902010641425
21,-18.94226964123476
22,-18.78250716483751
23,-19.14627811124067
2,1,12,21, 0,10,15.00,30.00,WinterDesignDay
7,-16.0
8,0.0
9,1.0
10,0.0
11,1.0
12,0.0
13,0.0
14,-19.066616090923134
15,-18.250763351533926
16,-18.2507320870562
17,-18.20006369467583
18,-18.2507320870562
19,-19.151250890412285
20,-21.70390228462089
21,-18.94227891199776
22,-18.782510953864772
23,-19.146293436464834
2,1,12,21, 0,10,30.00,45.00,WinterDesignDay
7,-16.0
8,0.0
9,1.0
10,0.0
11,1.0
12,0.0
13,0.0
14,-19.066630580437813
15,-18.250763992598902
16,-18.250732726729414
17,-18.200064320952617
18,-18.250732726729414
19,-19.151268724339097
20,-21.703902557434958
21,-18.94228814334096
22,-18.782514726781358
23,-19.14630869653654
2,1,12,21, 0,10,45.00,60.00,WinterDesignDay
7,-16.0
8,0.0
9,1.0
10,0.0
11,1.0
12,0.0
13,0.0
14,-19.066645008321235
15,-18.25076463093711
16,-18.250733363681817
17,-18.20006494456558
18,-18.250733363681817
19,-19.151286482389416
20,-21.703902829088594
21,-18.942297335424144
22,-18.782518483651415
23,-19.146323891732504
2,1,12,21, 0,11, 0.00,15.00,WinterDesignDay
7,-16.0
8,0.0
9,1.0
10,0.0
11,1.0
12,0.0
13,0.0
14,-19.066659374835446
15,-18.25076526656018
16,-18.250733997924964
17,-18.200065565526014
18,-18.250733997924964
19,-19.15130416488604
20,-21.703903099586725
21,-18.94230648841483
22,-18.782522224542106
23,-19.146339022328256
2,1,12,21, 0,11,15.00,30.00,WinterDesignDay
7,-16.0
8,0.0
9,1.0
10,0.0
11,1.0
12,0.0
13,0.0
14,-19.066673680241394
15,-18.25076589947963
16,-18.25073462947037
17,-18.200066183845216
18,-18.25073462947037
19,-19.15132177215037
20,-21.70390336893426
21,-18.94231560248116
22,-18.78252594952545
23,-19.146354088598173
2,1,12,21, 0,11,30.00,45.00,WinterDesignDay
7,-16.0
8,0.0
9,1.0
10,0.0
11,1.0
12,0.0
13,0.0
14,-19.06668792479889
15,-18.250766529706976
16,-18.250735258329513
17,-18.20006679953441
18,-18.250735258329513
19,-19.151339304502464
20,-21.703903637136108
21,-18.942324677789856
22,-18.78252965866801
23,-19.146369090815476
2,1,12,21, 0,11,45.00,60.00,WinterDesignDay
7,-16.0
8,0.0
9,1.0
10,0.0
11,1.0
12,0.0
13,0.0
14,-19.06670210876664
15,-18.25076715725364
16,-18.250735884513816
17,-18.200067412604778
18,-18.250735884513816
19,-19.151356762261013
20,-21.703903904197116
21,-18.942333714504485
22,-18.78253335203675
23,-19.14638402925223
2,1,12,21, 0,12, 0.00,15.00,WinterDesignDay
7,-16.0
8,0.0
9,1.0
10,0.0
11,1.0
12,0.0
13,0.0
14,-19.066716232402285
15,-18.250767782131035
16,-18.25073650803464
17,-18.200068023067463
18,-18.25073650803464
19,-19.151374145743347
20,-21.703904170122158
21,-18.9423427127835
22,-18.782537029694424
23,-19.146398904179325
2,1,12,21, 0,12,15.00,30.00,WinterDesignDay
7,-16.0
8,0.0
9,1.0
10,0.0
11,1.0
12,0.0
13,0.0
14,-19.06673029596234
15,-18.25076840435052
16,-18.250737128903317
17,-18.200068630933536
18,-18.250737128903317
19,-19.151391455265447
20,-21.703904434916044
21,-18.94235167279831
22,-18.782540691714786
23,-19.14641371586652
2,1,12,21, 0,12,30.00,45.00,WinterDesignDay
7,-16.0
8,0.0
9,1.0
10,0.0
11,1.0
12,0.0
13,0.0
14,-19.06674429970224
15,-18.250769023923368
16,-18.250737747131126
17,-18.20006923621405
18,-18.250737747131126
19,-19.151408691141963
20,-21.7039046985836
21,-18.942360594709896
22,-18.782544338160534
23,-19.146428464582428
2,1,12,21, 0,12,45.00,60.00,WinterDesignDay
7,-16.0
8,0.0
9,1.0
10,0.0
11,1.0
12,0.0
13,0.0
14,-19.066758243876347
15,-18.250769640860852
16,-18.2507383627293
17,-18.20006983891999
18,-18.2507383627293
19,-19.151425853686185
20,-21.70390496112961
21,-18.94236947867637
22,-18.78254796909829
23,-19.146443150594518
2,1,12,21, 0,13, 0.00,15.00,WinterDesignDay
7,-16.0
8,0.0
9,1.0
10,0.0
11,1.0
12,0.0
13,0.0
14,-19.06677212873793
15,-18.25077025517418
16,-18.250738975709012
17,-18.200070439062312
18,-18.250738975709012
19,-19.151442943210075
20,-21.703905222558834
21,-18.942378324860442
22,-18.782551584593676
23,-19.14645777416913
2,1,12,21, 0,13,15.00,30.00,WinterDesignDay
7,-16.0
8,0.0
9,1.0
10,0.0
11,1.0
12,0.0
13,0.0
14,-19.066785954539164
15,-18.250770866874497
16,-18.25073958608138
17,-18.200071036651917
18,-18.25073958608138
19,-19.1514599600243
20,-21.703905482876035
21,-18.942387133424432
22,-18.78255518471309
23,-19.146472335571463
2,1,12,21, 0,13,30.00,45.00,WinterDesignDay
7,-16.0
8,0.0
9,1.0
10,0.0
11,1.0
12,0.0
13,0.0
14,-19.066799721531186
15,-18.25077147597292
16,-18.25074019385752
17,-18.200071631699643
18,-18.25074019385752
19,-19.15147690443815
20,-21.703905742085936
21,-18.94239590452881
22,-18.78255876952153
23,-19.14648683506562
2,1,12,21, 0,13,45.00,60.00,WinterDesignDay
7,-16.0
8,0.0
9,1.0
10,0.0
11,1.0
12,0.0
13,0.0
14,-19.066813429964043
15,-18.250772082480506
16,-18.25074079904846
17,-18.20007222421631
18,-18.25074079904846
19,-19.15149377675965
20,-21.703906000193243
21,-18.94240463833276
22,-18.7825623390857
23,-19.146501272914566
2,1,12,21, 0,14, 0.00,15.00,WinterDesignDay
7,-16.0
8,0.0
9,1.0
10,0.0
11,1.0
12,0.0
13,0.0
14,-19.066827080086746
15,-18.250772686408283
16,-18.250741401665184
17,-18.20007281421269
18,-18.250741401665184
19,-19.151510577295493
20,-21.703906257202643
21,-18.942413334991727
22,-18.782565893467222
23,-19.146515649380156
2,1,12,21, 0,14,15.00,30.00,WinterDesignDay
7,-16.0
8,0.0
9,1.0
10,0.0
11,1.0
12,0.0
13,0.0
14,-19.066840672147247
15,-18.250773287767217
16,-18.25074200171865
17,-18.200073401699473
18,-18.25074200171865
19,-19.151527306351063
20,-21.703906513118813
21,-18.94242199466288
22,-18.782569432731606
23,-19.14652996472312
2,1,12,21, 0,14,30.00,45.00,WinterDesignDay
7,-16.0
8,0.0
9,1.0
10,0.0
11,1.0
12,0.0
13,0.0
14,-19.06685420639239
15,-18.25077388656822
16,-18.250742599219738
17,-18.20007398668735
18,-18.250742599219738
19,-19.15154396423045
20,-21.70390676794639
21,-18.9424306175095
22,-18.7825729569457
23,-19.146544219203097
2,1,12,21, 0,14,45.00,60.00,WinterDesignDay
7,-16.0
8,0.0
9,1.0
10,0.0
11,1.0
12,0.0
13,0.0
14,-19.06686768306802
15,-18.250774482822173
16,-18.25074319417932
17,-18.200074569186942
18,-18.25074319417932
19,-19.151560551236454
20,-21.70390702169001
21,-18.942439203685694
22,-18.782576466170582
23,-19.146558413078626
2,1,12,21, 0,15, 0.00,15.00,WinterDesignDay
7,-16.0
8,0.0
9,1.0
10,0.0
11,1.0
12,0.0
13,0.0
14,-19.06688110241892
15,-18.250775076539917
16,-18.2507437866082
17,-18.20007514920883
18,-18.2507437866082
19,-19.151577067670587
20,-21.70390727435429
21,-18.94244775334073
22,-18.782579960469036
23,-19.14657254660714
2,1,12,21, 0,15,15.00,30.00,WinterDesignDay
7,-16.0
8,0.0
9,1.0
10,0.0
11,1.0
12,0.0
13,0.0
14,-19.066894464688858
15,-18.250775667732217
16,-18.250744376517126
17,-18.20007572676354
18,-18.250744376517126
19,-19.15159351383308
20,-21.7039075259438
21,-18.942456266637407
22,-18.78258343990848
23,-19.146586620044975
2,1,12,21, 0,15,30.00,45.00,WinterDesignDay
7,-16.0
8,0.0
9,1.0
10,0.0
11,1.0
12,0.0
13,0.0
14,-19.066907770120537
15,-18.250776256409836
16,-18.250744963916812
17,-18.200076301861564
18,-18.250744963916812
19,-19.15160989002287
20,-21.70390777646312
21,-18.94246474373159
22,-18.782586904551863
23,-19.146600633647406
2,1,12,21, 0,15,45.00,60.00,WinterDesignDay
7,-16.0
8,0.0
9,1.0
10,0.0
11,1.0
12,0.0
13,0.0
14,-19.06692101895563
15,-18.250776842583434
16,-18.250745548817946
17,-18.200076874513364
18,-18.250745548817946
19,-19.15162619653766
20,-21.703908025916814
21,-18.942473184765902
22,-18.7825903544566
23,-19.1466145876686
2,1,12,21, 0,16, 0.00,15.00,WinterDesignDay
7,-16.0
8,0.0
9,1.0
10,0.0
11,1.0
12,0.0
13,0.0
14,-19.0669342114348
15,-18.25077742626368
16,-18.250746131231136
17,-18.200077444729313
18,-18.250746131231136
19,-19.151642433673846
20,-21.70390827430939
21,-18.942481589913086
22,-18.782593789692896
23,-19.14662848236168
2,1,12,21, 0,16,15.00,30.00,WinterDesignDay
7,-16.0
8,0.0
9,1.0
10,0.0
11,1.0
12,0.0
13,0.0
14,-19.06694734779769
15,-18.250778007461186
16,-18.250746711166975
17,-18.200078012519814
18,-18.250746711166975
19,-19.151658601726574
20,-21.703908521645385
21,-18.942489959305192
22,-18.782597210315373
23,-19.146642317978667
2,1,12,21, 0,16,30.00,45.00,WinterDesignDay
7,-16.0
8,0.0
9,0.0
10,0.0
11,0.0
12,0.0
13,0.0
14,-19.066960428282904
15,-18.250778586186485
16,-18.250747288635985
17,-18.200078577895127
18,-18.250747288635985
19,-19.151674700989755
20,-21.703908767929263
21,-18.942498293103654
22,-18.78260061639031
23,-19.14665609477051
2,1,12,21, 0,16,45.00,60.00,WinterDesignDay
7,-16.0
8,0.0
9,0.0
10,0.0
11,0.0
12,0.0
13,0.0
14,-19.06697345312805
15,-18.2507791624501
16,-18.250747863648648
17,-18.20007914086555
18,-18.250747863648648
19,-19.15169073175603
20,-21.70390901316551
21,-18.942506591461893
22,-18.782604007980808
23,-19.146669812987103
2,1,12,21, 0,17, 0.00,15.00,WinterDesignDay
7,-16.0
8,0.0
9,0.0
10,0.0
11,0.0
12,0.0
13,0.0
14,-19.066986422569702
15,-18.250779736262494
16,-18.25074843621543
17,-18.200079701441314
18,-18.25074843621543
19,-19.151706694316807
20,-21.703909257358596
21,-18.94251485452517
22,-18.78260738514524
23,-19.14668347287728
2,1,12,21, 0,17,15.00,30.00,WinterDesignDay
7,-16.0
8,0.0
9,0.0
10,0.0
11,0.0
12,0.0
13,0.0
14,-19.066999336843452
15,-18.250780307634095
16,-18.250749006346716
17,-18.200080259632582
18,-18.250749006346716
19,-19.151722588962233
20,-21.703909500512935
21,-18.942523082445803
22,-18.782610747945455
23,-19.14669707468882
2,1,12,21, 0,17,30.00,45.00,WinterDesignDay
7,-16.0
8,0.0
9,0.0
10,0.0
11,0.0
12,0.0
13,0.0
14,-19.06701219618388
15,-18.25078087657528
16,-18.250749574052858
17,-18.200080815449507
18,-18.250749574052858
19,-19.15173841598126
20,-21.703909742632966
21,-18.942531275376723
22,-18.782614096446935
23,-19.146710618668457
2,1,12,21, 0,17,45.00,60.00,WinterDesignDay
7,-16.0
8,0.0
9,0.0
10,0.0
11,0.0
12,0.0
13,0.0
14,-19.067025000824593
15,-18.25078144309638
16,-18.25075013934419
17,-18.20008136890219
18,-18.25075013934419
19,-19.151754175661566
20,-21.70390998372307
21,-18.942539433461064
22,-18.782617430704505
23,-19.14672410506187
2,1,12,21, 0,18, 0.00,15.00,WinterDesignDay
7,-16.0
8,0.0
9,0.0
10,0.0
11,0.0
12,0.0
13,0.0
14,-19.06703775099819
15,-18.2507820072077
16,-18.250750702230956
17,-18.200081920000667
18,-18.250750702230956
19,-19.15176986828964
20,-21.703910223787627
21,-18.942547556849547
22,-18.782620750782257
23,-19.146737534113704
2,1,12,21, 0,18,15.00,30.00,WinterDesignDay
7,-16.0
8,0.0
9,0.0
10,0.0
11,0.0
12,0.0
13,0.0
14,-19.067050446936243
15,-18.25078256891946
16,-18.25075126272339
17,-18.20008246875495
18,-18.25075126272339
19,-19.15178549415073
20,-21.703910462831004
21,-18.94255564569113
22,-18.78262405673982
23,-19.146750906067563
2,1,12,21, 0,18,30.00,45.00,WinterDesignDay
7,-16.0
8,0.0
9,0.0
10,0.0
11,0.0
12,0.0
13,0.0
14,-19.067063088869418
15,-18.250783128241892
16,-18.25075182083169
17,-18.20008301517502
18,-18.25075182083169
19,-19.151801053528892
20,-21.70391070085755
21,-18.94256370012883
22,-18.782627348636026
23,-19.146764221166016
2,1,12,21, 0,18,45.00,60.00,WinterDesignDay
7,-16.0
8,0.0
9,0.0
10,0.0
11,0.0
12,0.0
13,0.0
14,-19.067075677027326
15,-18.25078368518513
16,-18.25075237656596
17,-18.200083559270805
18,-18.25075237656596
19,-19.151816546706947
20,-21.703910937871562
21,-18.94257172031132
22,-18.78263062653184
23,-19.14677747965061
2,1,12,21, 0,19, 0.00,15.00,WinterDesignDay
7,-16.0
8,0.0
9,0.0
10,0.0
11,0.0
12,0.0
13,0.0
14,-19.067088211638644
15,-18.250784239759316
16,-18.25075292993632
17,-18.20008410105217
18,-18.25075292993632
19,-19.15183197396653
20,-21.70391117387738
21,-18.942579706381593
22,-18.782633890484874
23,-19.14679068176185
2,1,12,21, 0,19,15.00,30.00,WinterDesignDay
7,-16.0
8,0.0
9,0.0
10,0.0
11,0.0
12,0.0
13,0.0
14,-19.067100692931078
15,-18.250784791974503
16,-18.250753480952802
17,-18.200084640528953
18,-18.250753480952802
19,-19.151847335588087
20,-21.70391140887927
21,-18.942587658494006
22,-18.782637140560297
23,-19.146803827739244
2,1,12,21, 0,19,30.00,45.00,WinterDesignDay
7,-16.0
8,0.0
9,0.0
10,0.0
11,0.0
12,0.0
13,0.0
14,-19.06711312113132
15,-18.25078534184072
16,-18.25075402962545
17,-18.200085177710996
18,-18.25075402962545
19,-19.151862631850847
20,-21.703911642881515
21,-18.94259557678015
22,-18.782640376810008
23,-19.146816917821276
2,1,12,21, 0,19,45.00,60.00,WinterDesignDay
7,-16.0
8,0.0
9,0.0
10,0.0
11,0.0
12,0.0
13,0.0
14,-19.06712549646519
15,-18.250785889367997
16,-18.250754575964187
17,-18.20008571260801
18,-18.250754575964187
19,-19.151877863032873
20,-21.703911875888352
21,-18.94260346139015
22,-18.782643599295568
23,-19.14682995224541
2,1,12,21, 0,20, 0.00,15.00,WinterDesignDay
7,-16.0
8,0.0
9,0.0
10,0.0
11,0.0
12,0.0
13,0.0
14,-19.06713781915746
15,-18.25078643456622
16,-18.250755119978965
17,-18.200086245229727
18,-18.250755119978965
19,-19.151893029411035
20,-21.703912107904024
21,-18.942611312470035
22,-18.782646808076265
23,-19.146842931248116
2,1,12,21, 0,20,15.00,30.00,WinterDesignDay
7,-16.0
8,0.0
9,0.0
10,0.0
11,0.0
12,0.0
13,0.0
14,-19.067150089431976
15,-18.250786977445333
16,-18.25075566167967
17,-18.200086775585834
18,-18.25075566167967
19,-19.151908131261028
20,-21.70391233893274
21,-18.942619130155265
22,-18.782650003209994
23,-19.14685585506485
2,1,12,21, 0,20,30.00,45.00,WinterDesignDay
7,-16.0
8,0.0
9,0.0
10,0.0
11,0.0
12,0.0
13,0.0
14,-19.067162307511648
15,-18.250787518015184
16,-18.250756201076108
17,-18.20008730368595
18,-18.250756201076108
19,-19.151923168857365
20,-21.7039125689787
21,-18.9426269145888
22,-18.782653184750643
23,-19.146868723930066
2,1,12,21, 0,20,45.00,60.00,WinterDesignDay
7,-16.0
8,0.0
9,0.0
10,0.0
11,0.0
12,0.0
13,0.0
14,-19.067174473618437
15,-18.250788056285593
16,-18.25075673817811
17,-18.200087829539665
18,-18.25075673817811
19,-19.151938142473416
20,-21.70391279804607
21,-18.942634665919684
22,-18.7826563527625
23,-19.146881538077224
2,1,12,21, 0,21, 0.00,15.00,WinterDesignDay
7,-16.0
8,0.0
9,0.0
10,0.0
11,0.0
12,0.0
13,0.0
14,-19.06718658797332
15,-18.250788592266343
16,-18.25075727299544
17,-18.200088353156545
18,-18.25075727299544
19,-19.151953052381355
20,-21.70391302613904
21,-18.942642384281783
22,-18.782659507300735
23,-19.146894297738818
2,1,12,21, 0,21,15.00,30.00,WinterDesignDay
7,-16.0
8,0.0
9,0.0
10,0.0
11,0.0
12,0.0
13,0.0
14,-19.067198650796392
15,-18.25078912596716
16,-18.25075780553778
17,-18.200088874546097
18,-18.25075780553778
19,-19.15196789885222
20,-21.70391325326174
21,-18.942650069814135
22,-18.7826626484202
23,-19.146907003146335
2,1,12,21, 0,21,30.00,45.00,WinterDesignDay
7,-16.0
8,0.0
9,0.0
10,0.0
11,0.0
12,0.0
13,0.0
14,-19.06721066230677
15,-18.25078965739775
16,-18.250758335814815
17,-18.200089393717786
18,-18.250758335814815
19,-19.151982682155904
20,-21.703913479418283
21,-18.942657722664308
22,-18.782665776180835
23,-19.14691965453028
2,1,12,21, 0,21,45.00,60.00,WinterDesignDay
7,-16.0
8,0.0
9,0.0
10,0.0
11,0.0
12,0.0
13,0.0
14,-19.067222622722678
15,-18.25079018656777
16,-18.2507588638362
17,-18.200089910681058
18,-18.2507588638362
19,-19.151997402561125
20,-21.703913704612795
21,-18.94266534296446
22,-18.78266889063957
23,-19.146932252120198
2,1,12,21, 0,22, 0.00,15.00,WinterDesignDay
7,-16.0
8,0.0
9,0.0
10,0.0
11,0.0
12,0.0
13,0.0
14,-19.067234532261384
15,-18.25079071348681
16,-18.250759389611513
17,-18.2000904254453
18,-18.250759389611513
19,-19.152012060335476
20,-21.70391392884935
21,-18.942672930853178
22,-18.78267199185126
23,-19.146944796144645
2,1,12,21, 0,22,15.00,30.00,WinterDesignDay
7,-16.0
8,0.0
9,0.0
10,0.0
11,0.0
12,0.0
13,0.0
14,-19.067246391139253
15,-18.250791238164478
16,-18.25075991315028
17,-18.200090938019837
18,-18.250759913150283
19,-19.15202665574541
20,-21.70391415213204
21,-18.94268048646819
22,-18.782675079871694
23,-19.146957286831196
2,1,12,21, 0,22,30.00,45.00,WinterDesignDay
7,-16.0
8,0.0
9,0.0
10,0.0
11,0.0
12,0.0
13,0.0
14,-19.067258199571672
15,-18.25079176061025
16,-18.25076043446204
17,-18.200091448414007
18,-18.25076043446204
19,-19.15204118905624
20,-21.703914374464915
21,-18.94268800995343
22,-18.78267815476113
23,-19.146969724406485
2,1,12,21, 0,22,45.00,60.00,WinterDesignDay
7,-16.0
8,0.0
9,0.0
10,0.0
11,0.0
12,0.0
13,0.0
14,-19.067269957773206
15,-18.250792280833686
16,-18.250760953556274
17,-18.200091956637092
18,-18.250760953556274
19,-19.15205566053216
20,-21.70391459585201
21,-18.942695501438976
22,-18.782681216570552
23,-19.14698210909618
2,1,12,21, 0,23, 0.00,15.00,WinterDesignDay
7,-16.0
8,0.0