Program Version,EnergyPlus, Version 23.2.0-7636e6b3e9, YMD=2026.07.22 10:24
1,5,Environment Title[],Latitude[deg],Longitude[deg],Time Zone[],Elevation[m]
2,8,Day of Simulation[],Month[],Day of Month[],DST Indicator[1=yes 0=no],Hour[],StartMinute[],EndMinute[],DayType
3,5,Cumulative Day of Simulation[],Month[],Day of Month[],DST Indicator[1=yes 0=no],DayType  ! When Daily Report Variables Requested
4,2,Cumulative Days of Simulation[],Month[]  ! When Monthly Report Variables Requested
5,1,Cumulative Days of Simulation[] ! When Run Period Report Variables Requested
6,1,Calendar Year of Simulation[] ! When Annual Report Variables Requested
7,1,Environment,Site Outdoor Air Drybulb Temperature [C] !TimeStep
8,1,Environment,Site Sky Temperature [C] !TimeStep
9,1,Environment,Site Diffuse Solar Radiation Rate per Area [W/m2] !TimeStep
10,1,Environment,Site Direct Solar Radiation Rate per Area [W/m2] !TimeStep
11,1,Environment,Site Ground Temperature [C] !TimeStep
12,1,ZONE ONE,Zone Total Internal Radiant Heating Rate [W] !TimeStep
13,1,ZONE ONE,Zone Total Internal Convective Heating Rate [W] !TimeStep
14,1,ZONE ONE,Zone Windows Total Transmitted Solar Radiation Rate [W] !TimeStep
15,1,ZN001:WALL001,Surface Outside Face Sunlit Fraction [] !TimeStep
16,1,ZN001:WALL001,Surface Outside Face Incident Solar Radiation Rate per Area [W/m2] !TimeStep
17,1,ZN001:WALL002,Surface Outside Face Incident Solar Radiation Rate per Area [W/m2] !TimeStep
18,1,ZN001:WALL003,Surface Outside Face Incident Solar Radiation Rate per Area [W/m2] !TimeStep
19,1,ZN001:WALL004,Surface Outside Face Incident Solar Radiation Rate per Area [W/m2] !TimeStep
20,1,ZN001:ROOF001,Surface Outside Face Incident Solar Radiation Rate per Area [W/m2] !TimeStep
21,1,ZN001:WALL001:WIN001,Surface Outside Face Sunlit Fraction [] !TimeStep
22,1,ZN001:WALL001:WIN001,Surface Outside Face Incident Solar Radiation Rate per Area [W/m2] !TimeStep
23,1,ZN001:WALL001:WIN001,Surface Window Transmitted Solar Radiation Rate [W] !TimeStep
24,1,ZN001:WALL001:WIN001,Surface Window Net Heat Transfer Rate [W] !TimeStep
25,1,ZN001:WALL001,Surface Inside Face Temperature [C] !TimeStep
26,1,ZN001:WALL001,Surface Outside Face Temperature [C] !TimeStep
27,1,ZN001:WALL001,Surface Inside Face Convection Heat Transfer Coefficient [W/m2-K] !TimeStep
28,1,ZN001:WALL001,Surface Outside Face Outdoor Air Drybulb Temperature [C] !TimeStep
29,1,ZN001:WALL001,Surface Outside Face Convection Heat Transfer Coefficient [W/m2-K] !TimeStep
30,1,ZN001:WALL001,Surface Outside Face Net Thermal Radiation Heat Gain Rate [W] !TimeStep
31,1,ZN001:WALL001,Surface Outside Face Thermal Radiation to Sky Heat Transfer Coefficient [W/m2-K] !TimeStep
32,1,ZN001:WALL001,Surface Outside Face Thermal Radiation to Ground Heat Transfer Coefficient [W/m2-K] !TimeStep
33,1,ZN001:WALL001,Surface Outside Face Thermal Radiation to Air Heat Transfer Rate [W] !TimeStep
34,1,ZN001:WALL001,Surface Outside Face Solar Radiation Heat Gain Rate [W] !TimeStep
35,1,ZN001:WALL002,Surface Inside Face Temperature [C] !TimeStep
36,1,ZN001:WALL002,Surface Outside Face Temperature [C] !TimeStep
37,1,ZN001:WALL002,Surface Inside Face Convection Heat Transfer Coefficient [W/m2-K] !TimeStep
38,1,ZN001:WALL002,Surface Outside Face Outdoor Air Drybulb Temperature [C] !TimeStep
39,1,ZN001:WALL002,Surface Outside Face Convection Heat Transfer Coefficient [W/m2-K] !TimeStep
40,1,ZN001:WALL002,Surface Outside Face Net Thermal Radiation Heat Gain Rate [W] !TimeStep
41,1,ZN001:WALL002,Surface Outside Face Thermal Radiation to Sky Heat Transfer Coefficient [W/m2-K] !TimeStep
42,1,ZN001:WALL002,Surface Outside Face Thermal Radiation to Ground Heat Transfer Coefficient [W/m2-K] !TimeStep
43,1,ZN001:WALL002,Surface Outside Face Thermal Radiation to Air Heat Transfer Rate [W] !TimeStep
44,1,ZN001:WALL002,Surface Outside Face Solar Radiation Heat Gain Rate [W] !TimeStep
45,1,ZN001:WALL003,Surface Inside Face Temperature [C] !TimeStep
46,1,ZN001:WALL003,Surface Outside Face Temperature [C] !TimeStep
47,1,ZN001:WALL003,Surface Inside Face Convection Heat Transfer Coefficient [W/m2-K] !TimeStep
48,1,ZN001:WALL003,Surface Outside Face Outdoor Air Drybulb Temperature [C] !TimeStep
49,1,ZN001:WALL003,Surface Outside Face Convection Heat Transfer Coefficient [W/m2-K] !TimeStep
50,1,ZN001:WALL003,Surface Outside Face Net Thermal Radiation Heat Gain Rate [W] !TimeStep
51,1,ZN001:WALL003,Surface Outside Face Thermal Radiation to Sky Heat Transfer Coefficient [W/m2-K] !TimeStep
52,1,ZN001:WALL003,Surface Outside Face Thermal Radiation to Ground Heat Transfer Coefficient [W/m2-K] !TimeStep
53,1,ZN001:WALL003,Surface Outside Face Thermal Radiation to Air Heat Transfer Rate [W] !TimeStep
54,1,ZN001:WALL003,Surface Outside Face Solar Radiation Heat Gain Rate [W] !TimeStep
55,1,ZN001:WALL004,Surface Inside Face Temperature [C] !TimeStep
56,1,ZN001:WALL004,Surface Outside Face Temperature [C] !TimeStep
57,1,ZN001:WALL004,Surface Inside Face Convection Heat Transfer Coefficient [W/m2-K] !TimeStep
58,1,ZN001:WALL004,Surface Outside Face Outdoor Air Drybulb Temperature [C] !TimeStep
59,1,ZN001:WALL004,Surface Outside Face Convection Heat Transfer Coefficient [W/m2-K] !TimeStep
60,1,ZN001:WALL004,Surface Outside Face Net Thermal Radiation Heat Gain Rate [W] !TimeStep
61,1,ZN001:WALL004,Surface Outside Face Thermal Radiation to Sky Heat Transfer Coefficient [W/m2-K] !TimeStep
62,1,ZN001:WALL004,Surface Outside Face Thermal Radiation to Ground Heat Transfer Coefficient [W/m2-K] !TimeStep
63,1,ZN001:WALL004,Surface Outside Face Thermal Radiation to Air Heat Transfer Rate [W] !TimeStep
64,1,ZN001:WALL004,Surface Outside Face Solar Radiation Heat Gain Rate [W] !TimeStep
65,1,ZN001:FLR001,Surface Inside Face Temperature [C] !TimeStep
66,1,ZN001:FLR001,Surface Outside Face Temperature [C] !TimeStep
67,1,ZN001:FLR001,Surface Inside Face Convection Heat Transfer Coefficient [W/m2-K] !TimeStep
68,1,ZN001:ROOF001,Surface Inside Face Temperature [C] !TimeStep
69,1,ZN001:ROOF001,Surface Outside Face Temperature [C] !TimeStep
70,1,ZN001:ROOF001,Surface Inside Face Convection Heat Transfer Coefficient [W/m2-K] !TimeStep
71,1,ZN001:ROOF001,Surface Outside Face Outdoor Air Drybulb Temperature [C] !TimeStep
72,1,ZN001:ROOF001,Surface Outside Face Convection Heat Transfer Coefficient [W/m2-K] !TimeStep
73,1,ZN001:ROOF001,Surface Outside Face Net Thermal Radiation Heat Gain Rate [W] !TimeStep
74,1,ZN001:ROOF001,Surface Outside Face Thermal Radiation to Sky Heat Transfer Coefficient [W/m2-K] !TimeStep
75,1,ZN001:ROOF001,Surface Outside Face Thermal Radiation to Ground Heat Transfer Coefficient [W/m2-K] !TimeStep
76,1,ZN001:ROOF001,Surface Outside Face Thermal Radiation to Air Heat Transfer Rate [W] !TimeStep
77,1,ZN001:ROOF001,Surface Outside Face Solar Radiation Heat Gain Rate [W] !TimeStep
78,1,ZN001:WALL001:WIN001,Surface Inside Face Temperature [C] !TimeStep
79,1,ZN001:WALL001:WIN001,Surface Outside Face Temperature [C] !TimeStep
80,1,ZN001:WALL001:WIN001,Surface Inside Face Convection Heat Transfer Coefficient [W/m2-K] !TimeStep
81,1,ZN001:WALL001:WIN001,Surface Outside Face Outdoor Air Drybulb Temperature [C] !TimeStep
82,1,ZN001:WALL001:WIN001,Surface Outside Face Convection Heat Transfer Coefficient [W/m2-K] !TimeStep
83,1,ZN001:WALL001:WIN001,Surface Outside Face Net Thermal Radiation Heat Gain Rate [W] !TimeStep
84,1,ZN001:WALL001:WIN001,Surface Outside Face Thermal Radiation to Sky Heat Transfer Coefficient [W/m2-K] !TimeStep
85,1,ZN001:WALL001:WIN001,Surface Outside Face Thermal Radiation to Ground Heat Transfer Coefficient [W/m2-K] !TimeStep
86,1,ZN001:WALL001:WIN001,Surface Outside Face Thermal Radiation to Air Heat Transfer Rate [W] !TimeStep
87,1,ZONE ONE,Zone Mean Air Temperature [C] !TimeStep
88,1,ZONE ONE,Zone Air Heat Balance Internal Convective Heat Gain Rate [W] !TimeStep
89,1,ZONE ONE,Zone Air Heat Balance Surface Convection Rate [W] !TimeStep
90,1,ZONE ONE,Zone Air Heat Balance Interzone Air Transfer Rate [W] !TimeStep
91,1,ZONE ONE,Zone Air Heat Balance Outdoor Air Transfer Rate [W] !TimeStep
92,1,ZONE ONE,Zone Air Heat Balance System Air Transfer Rate [W] !TimeStep
93,1,ZONE ONE,Zone Air Heat Balance Air Energy Storage Rate [W] !TimeStep
End of Data Dictionary
1,RUN PERIOD 1,  55.95,  -3.37,   0.00,  41.10
2,1, 4, 1, 0, 1, 0.00,15.00,Tuesday
7,3.8249999999999997
8,-1.4987413327883132
9,0.0
10,0.0
11,19.12
12,0.0
13,0.0
14,0.0
15,0.0
16,0.0
17,0.0
18,0.0
19,0.0
20,0.0
21,0.0
22,0.0
23,0.0
24,-90.988609485181
25,6.554358733118833
26,2.9144329931910633
27,0.8684180928240608
28,3.819891003043213
29,2.6931407843412245
30,-236.01708510246453
31,1.484139607902862
32,2.160451955602991
33,-33.726209546596536
34,0.0
35,6.547672960339663
36,2.9168447628789202
37,0.8802405771810482
38,3.819891003043213
39,2.7038294348359053
40,-279.9808668606865
41,1.4835411122729567
42,2.159594608612112
43,-39.7999685531585
44,0.0
45,6.540346419159998
46,2.8149058184426345
47,0.8797663937716634
48,3.819891003043213
49,1.967190116542969
50,-249.61672971668554
51,1.483571559356849
52,2.1596382242204837
53,-44.29361950672879
54,0.0
55,6.539709491521274
56,2.81019741897807
57,0.874790866902793
58,3.819891003043213
59,1.94686092658878
60,-248.31273492173457
61,1.4841543774087345
62,2.160473112938665
63,-44.51834062243278
64,0.0
65,7.215367671412537
66,7.241444090823996
67,1.054990521978724
68,6.667225865891922
69,0.4665723506478967
70,0.8474402031470557
71,3.805032019075771
72,2.1101025636131716
73,-1895.9567679862726
74,4.15361862618836
75,0.0
76,0.0
77,0.0
78,5.374411195036032
79,4.0053751209467805
80,1.3759832329402546
81,3.8249999999999997
82,1.8903863876328577
83,-79.64557584261914
84,1.3933688647766747
85,2.0281838865910617
86,-1.0481370250820832
87,6.871467777437646
88,0.0
89,-58.52578392988973
90,0.0
91,0.0
92,0.0
93,-53.06900909892596
2,1, 4, 1, 0, 1,15.00,30.00,Tuesday
7,3.8499999999999996
8,-2.884055518863761
9,0.0
10,0.0
11,19.12
12,0.0
13,0.0
14,0.0
15,0.0
16,0.0
17,0.0
18,0.0
19,0.0
20,0.0
21,0.0
22,0.0
23,0.0
24,-96.20040692353562
25,6.497515485035766
26,2.703822586804606
27,0.89334164869239
28,3.844891003043213
29,2.9659303725260147
30,-295.8238893255199
31,1.4711012571718565
32,2.1580374770930733
33,-42.45465083187114
34,0.0
35,6.489865366819199
36,2.7032738446002567
37,0.8995762959565445
38,3.844891003043213
39,2.9656400538909864
40,-350.0119665939118
41,1.4711208761434242
42,2.158065677714953
43,-50.27888647677092
44,0.0
45,6.481701525231543
46,2.582922829496523
47,0.9063106926810914
48,3.844891003043213
49,2.2365409404275227
50,-314.09820502767957
51,1.4702918366218483
52,2.1568740001958653
53,-55.548672308337075
54,0.0
55,6.481764637435153
56,2.5832892813171533
57,0.9068914310163276
58,3.844891003043213
59,2.237570697212231
60,-314.19863908869326
61,1.4702535545397935
62,2.156818972642528
63,-55.53112523689897
64,0.0
65,7.18820646723842
66,7.215367671412537
67,1.0649566452836765
68,6.605866149947134
69,-0.21650062088255
70,0.8951645382659248
71,3.830032019075771
72,2.400556650505256
73,-2543.2419090979447
74,4.104916918226424
75,0.0
76,0.0
77,0.0
78,5.244031829956839
79,3.7942133618653315
80,1.3964044154221171
81,3.8499999999999996
82,1.9263942184858824
83,-88.8049095672964
84,1.3813326591559867
85,2.0261615002248097
86,0.3238424637199338
87,6.829441273137427
88,0.0
89,-68.22426409396296
90,0.0
91,0.0
92,0.0
93,-62.58497800932257
2,1, 4, 1, 0, 1,30.00,45.00,Tuesday
7,3.875
8,-4.291005668255764
9,0.0
10,0.0
11,19.12
12,0.0
13,0.0
14,0.0
15,0.0
16,0.0
17,0.0
18,0.0
19,0.0
20,0.0
21,0.0
22,0.0
23,0.0
24,-101.92369277168875
25,6.4285408346747905
26,2.3582164843664337
27,0.9070440328198038
28,3.869891003043213
29,2.46453699388857
30,-322.0440505544147
31,1.4581492929613638
32,2.15586893876988
33,-56.18692363421533
34,0.0
35,6.43101514164016
36,2.5046641055744856
37,0.9139595918259922
38,3.869891003043213
39,3.218116955257781
40,-424.52691588496623
41,1.458144848924939
42,2.155862528547556
43,-60.06568105312741
44,0.0
45,6.4318034593457005
46,2.5091073120674716
47,0.9212259233286109
48,3.869891003043213
49,3.2304519189035306
50,-425.55238321643185
51,1.4571704635518992
52,2.1544570383825423
53,-59.831162274892
54,0.0
55,6.421538612367091
56,2.3649574502271298
57,0.9211701880494619
58,3.869891003043213
59,2.4863504982270417
60,-382.9400929490948
61,1.4571734295480423
62,2.1544613166624393
63,-66.16929862706372
64,0.0
65,7.15970624189327
66,7.18820646723842
67,1.0800851993635325
68,6.543359110005939
69,-0.850589312794854
70,0.9225623779725931
71,3.855032019075771
72,2.681733341113903
73,-3242.47804423667
74,4.057851095948054
75,0.0
76,0.0
77,0.0
78,5.1039335392255225
79,3.5649902409876404
80,1.41031793878544
81,3.875
82,1.483022120873247
83,-97.26919540320846
84,1.3692032391858224
85,2.0241200771077423
86,1.7976232558952783
87,6.7823880578073625
88,0.0
89,-73.13802301083182
90,0.0
91,0.0
92,0.0
93,-70.0813846124459
2,1, 4, 1, 0, 1,45.00,60.00,Tuesday
7,3.9
8,-5.720397049500946
9,0.0
10,0.0
11,19.12
12,0.0
13,0.0
14,0.0
15,0.0
16,0.0
17,0.0
18,0.0
19,0.0
20,0.0
21,0.0
22,0.0
23,0.0
24,-106.80705148737634
25,6.369378353328434
26,2.161916155984598
27,0.9265879246087169
28,3.894891003043213
29,2.7279192433121127
30,-385.5135074113516
31,1.444022713269849
32,2.1521276823741515
33,-64.3005813239613
34,0.0
35,6.371406216387862
36,2.3165932012530304
37,0.9244231224537529
38,3.894891003043213
39,3.455378771995181
40,-502.30518524041145
41,1.4452030494034669
42,2.1538362923675156
43,-69.37486448548124
44,0.0
45,6.371341115101113
46,2.3163300082471605
47,0.9237312793570827
48,3.894891003043213
49,3.4549907571955245
50,-502.24028320741576
51,1.4452388739215403
52,2.1538881503094873
53,-69.38810388287065
54,0.0
55,6.360894354459734
56,2.160966061901026
57,0.9326600755375618
58,3.894891003043213
59,2.7269091460344512
60,-456.0745294265627
61,1.4440770254068105
62,2.1522063029605953
63,-76.15785404585438
64,0.0
65,7.129856921124915
66,7.15970624189327
67,1.0983914891145392
68,6.480577059739918
69,-1.4395734199534658
70,0.9433468721645623
71,3.880032019075771
72,2.957928191652861
73,-3988.710446041943
74,4.011762747995134
75,0.0
76,0.0
77,0.0
78,4.976666475298202
79,3.3600681122081255
80,1.4270466045583046
81,3.9
82,1.7732534648546372
83,-106.7141567058147
84,1.3568560444630757
85,2.0218829976736488
86,3.1278013502417434
87,6.732440492246892
88,0.0
89,-75.4879083040631
90,0.0
91,0.0
92,0.0
93,-74.40441874358356
2,1, 4, 1, 0, 2, 0.00,15.00,Tuesday
7,3.8249999999999997
8,-6.240634339670748
9,0.0
10,0.0
11,19.12
12,0.0
13,0.0
14,0.0
15,0.0
16,0.0
17,0.0
18,0.0
19,0.0
20,0.0
21,0.0
22,0.0
23,0.0
24,-109.12441401891267
25,6.31919779578971
26,2.0235384098964433
27,0.9345625190512792
28,3.819891003043213
29,2.7959234851943577
30,-405.2605719335685
31,1.4383399994585797
32,2.148961938957581
33,-66.55411535066945
34,0.0
35,6.321271268071344
36,2.181585606242405
37,0.9328192873923061
38,3.819891003043213
39,3.5177388516831574
40,-526.6106872998911
41,1.439583914384184
42,2.1507645610924206
43,-71.90982622958582
44,0.0
45,6.321276392867404
46,2.181604867926341
47,0.9328753523241062
48,3.819891003043213
49,3.517761189317444
50,-526.6155627348693
51,1.4395817969809175
52,2.1507614926702505
53,-71.90887819008636
54,0.0
55,6.310618428824346
56,2.0231244773931345
57,0.9417861280893218
58,3.819891003043213
59,2.7960589176724104
60,-479.5874157243546
61,1.4383323617045025
62,2.1489508706250047
63,-78.79862517018117
64,0.0
65,7.099577637017547
66,7.129856921124915
67,1.1175574363414238
68,6.43237511350394
69,-1.688152843837666
70,0.9599374898999823
71,3.805032019075771
72,3.0344410534236275
73,-4215.723759762002
74,3.9870714847019055
75,0.0
76,0.0
77,0.0
78,4.890362989880032
79,3.2366382008209484
80,1.4378936614780409
81,3.8249999999999997
82,1.8607190126452302
83,-110.31574359083208
84,1.3514668851586709
85,2.0188191139121083
86,3.4046903014232126
87,6.683077164164245
88,0.0
89,-71.37183784672125
90,0.0
91,0.0
92,0.0
93,-73.547263072847
2,1, 4, 1, 0, 2,15.00,30.00,Tuesday
7,3.75
8,-6.763931550078951
9,0.0
10,0.0
11,19.12
12,0.0
13,0.0
14,0.0
15,0.0
16,0.0
17,0.0
18,0.0
19,0.0
20,0.0
21,0.0
22,0.0
23,0.0
24,-111.62619818127529
25,6.267485093715542
26,1.883359498142179
27,0.9352632068956529
28,3.744891003043213
29,2.855030282195517
30,-424.730993665329
31,1.4331139499962189
32,2.1464736273029104
33,-68.88910679706713
34,0.0
35,6.269655426785944
36,2.045681275717817
37,0.9334833702860967
38,3.744891003043213
39,3.574781776832475
40,-550.8514888444449
41,1.4343824987034866
42,2.1483139756734184
43,-74.49810827084616
44,0.0
45,6.269655024647382
46,2.045679796485379
47,0.933478962826612
48,3.744891003043213
49,3.574780197830095
50,-550.8511152364778
51,1.434382653365301
52,2.1483142000478264
53,-74.4981809052798
54,0.0
55,6.258702139299649
56,1.8828893040826837
57,0.9425565743446652
58,3.744891003043213
59,2.8550869629010713
60,-502.6199372851428
61,1.4331106289040878
62,2.1464688091953845
63,-81.56524790635069
64,0.0
65,7.068384108697805
66,7.099577637017547
67,1.1351669722973647
68,6.38218647647328
69,-1.945467983795639
70,0.9584597420111706
71,3.730032019075771
72,3.1027324358261748
73,-4442.917547168399
74,3.9699929912253267
75,0.0
76,0.0
77,0.0
78,4.805167475418045
79,3.11157087938318
80,1.444730135787995
81,3.75
82,1.9107189240357867
83,-113.857874822918
84,1.3466842742660368
85,2.016648905087501
86,3.690411379007179
87,6.635852001629263
88,0.0
89,-67.99715651600599
90,0.0
91,0.0
92,0.0
93,-70.3736246931961
2,1, 4, 1, 0, 2,30.00,45.00,Tuesday
7,3.6750000000000003
8,-7.290331007743134
9,0.0
10,0.0
11,19.12
12,0.0
13,0.0
14,0.0
15,0.0
16,0.0
17,0.0
18,0.0
19,0.0
20,0.0
21,0.0
22,0.0
23,0.0
24,-114.11278546565369
25,6.216476594710423
26,1.7442843200997358
27,0.9390922181438496
28,3.6698910030432135
29,2.914135537598251
30,-444.5137463338876
31,1.4278633910466716
32,2.1439663475633135
33,-71.17707797509506
34,0.0
35,6.206211738278178
36,1.7347996671333112
37,0.9372442790707901
38,3.6698910030432135
39,2.89257537687078
40,-523.8883921938112
41,1.4291636977398243
42,2.1458548670222686
43,-84.74270439060832
44,0.0
45,6.218713083123802
46,1.9105643351348232
47,0.9372446221487561
48,3.6698910030432135
49,3.6312592611769396
50,-575.368132878712
51,1.429163685885449
52,2.1458548498055143
53,-77.04550983314799
54,0.0
55,6.219762411798539
56,1.9164994633758556
57,0.946497250516977
58,3.6698910030432135
59,3.644262892960678
60,-576.5697461231035
61,1.4278596259825287
62,2.143960879281213
63,-76.7178227030211
64,0.0
65,7.036427067337886
66,7.068384108697805
67,1.1495486723358848
68,6.332655362155165
69,-2.199450285901216
70,0.9622215144527958
71,3.6550320190757715
72,3.171074388988284
73,-4673.659564333827
74,3.9527033232463173
75,0.0
76,0.0
77,0.0
78,4.720007182269455
79,2.986798329310716
80,1.4518607886096926
81,3.6750000000000003
82,1.9600916817434029
83,-117.41670609316598
84,1.3418794573402424
85,2.014462403910967
86,3.9738117725336655
87,6.5903685803810905
88,0.0
89,-66.67746183305289
90,0.0
91,0.0
92,0.0
93,-67.78931849887898
2,1, 4, 1, 0, 2,45.00,60.00,Tuesday
7,3.6
8,-7.819875967085466
9,0.0
10,0.0
11,19.12
12,0.0
13,0.0
14,0.0
15,0.0
16,0.0
17,0.0
18,0.0
19,0.0
20,0.0
21,0.0
22,0.0
23,0.0
24,-116.60422981211715
25,6.165896148421635
26,1.6059927055585577
27,0.9437640373235676
28,3.5948910030432133
29,2.9728616982804006
30,-464.53525275380116
31,1.422611479047128
32,2.141473907394093
33,-73.43108907308334
34,0.0
35,6.156845549784651
36,1.6061483724744605
37,0.9523229045358239
38,3.5948910030432133
39,2.9740621412645103
40,-549.891224873326
41,1.4225356825307478
42,2.1413636989718308
43,-86.90995499253373
44,0.0
45,6.168186200066543
46,1.776020362813854
47,0.9418785196016574
48,3.5948910030432133
49,3.687062028215406
50,-600.1019169687441
51,1.4239408790567112
52,2.1434068456897073
53,-79.56222716848964
54,0.0
55,6.168100586184024
56,1.7756744297580325
57,0.9409912536931552
58,3.5948910030432133
59,3.686607205394723
60,-600.0212013214464
61,1.4239883502020785
62,2.1434758679002
63,-79.57992175650217
64,0.0
65,7.003781215046644
66,7.036427067337886
67,1.1614089885469217
68,6.283515548649814
69,-2.450734369756436
70,0.9673125268423063
71,3.5800320190757713
72,3.2392131430787687
73,-4907.626734171719
74,3.935471141349887
75,0.0
76,0.0
77,0.0
78,4.635489309548348
79,2.8626150557190613
80,1.4590884514518772
81,3.6
82,2.0082471667361617
83,-121.00373814099859
84,1.3370668676464412
85,2.0122807331608947
86,4.253207170014837
87,6.545730219384341
88,0.0
89,-66.34571984747595
90,0.0
91,0.0
92,0.0
93,-66.54060824486159
2,1, 4, 1, 0, 3, 0.00,15.00,Tuesday
7,3.6
8,-7.997097567027481
9,0.0
10,0.0
11,19.12
12,0.0
13,0.0
14,0.0
15,0.0
16,0.0
17,0.0
18,0.0
19,0.0
20,0.0
21,0.0
22,0.0
23,0.0
24,-115.95612872777343
25,6.139200105620903
26,1.6323560936266082
27,0.9487373791306547
28,3.5948910030432133
29,3.192837680143885
30,-484.71071102881376
31,1.4201244984427819
32,2.1398675066515302
33,-72.40338671143489
34,0.0
35,6.129948932695557
36,1.63181241187758
37,0.956213740018603
38,3.5948910030432133
39,3.1928205282374096
40,-573.5995956941732
41,1.4201257410989885
42,2.13986931428033
43,-85.72854311873174
44,0.0
45,6.140812115015793
46,1.7936261665235185
47,0.9468268618592931
48,3.5948910030432133
49,3.8975456024953328
50,-621.408657688787
51,1.4214823611803746
52,2.1418427061144265
53,-78.73460449544105
54,0.0
55,6.140818499677994
56,1.793649645617846
57,0.946898425609062
58,3.5948910030432133
59,3.8975686460352397
60,-621.414281766154
61,1.421479597360474
62,2.141838685784795
63,-78.73343042077501
64,0.0
65,6.972056152906256
66,7.003781215046644
67,1.171725435923065
68,6.2568137315266075
69,-2.3259501066112174
70,0.9729120358610609
71,3.5800320190757713
72,3.503348919624078
73,-5171.2432759111325
74,3.9260343521968153
75,0.0
76,0.0
77,0.0
78,4.600299493170212
79,2.835572676443519
80,1.4554957809297968
81,3.6
82,2.1706669780042525
83,-122.12434376712193
84,1.3348411232533355
85,2.0109262143910485
86,4.408540039985689
87,6.504851523953769
88,0.0
89,-56.68594731488733
90,0.0
91,0.0
92,0.0
93,-60.94528461856934
2,1, 4, 1, 0, 3,15.00,30.00,Tuesday
7,3.6
8,-8.174675232709944
9,0.0
10,0.0
11,19.12
12,0.0
13,0.0
14,0.0
15,0.0
16,0.0
17,0.0
18,0.0
19,0.0
20,0.0
21,0.0
22,0.0
23,0.0
24,-115.61314973230292
25,6.110214572240346
26,1.6507963234723022
27,0.9367789565151444
28,3.5948910030432133
29,3.3976498233906263
30,-503.37552939676885
31,1.4189511389835585
32,2.1401736618837712
33,-71.73333676637752
34,0.0
35,6.100962870882832
36,1.6503110744630036
37,0.9446135831863345
38,3.5948910030432133
39,3.3977023780873528
40,-595.7080545433498
41,1.4189468002112668
42,2.140167347770872
43,-84.93252548972445
44,0.0
45,6.111363952719254
46,1.80489765499995
47,0.9354003018827916
48,3.5948910030432133
49,4.092959847619362
50,-641.3901575982037
51,1.4202386440156016
52,2.142047324337575
53,-78.24939422604753
54,0.0
55,6.111363485865522
56,1.804896027429447
57,0.9353948333815627
58,3.5948910030432133
59,4.092958523939028
60,-641.3897687601834
61,1.420238831536185
62,2.1420475972280024
63,-78.24947534389008
64,0.0
65,6.94030193808832
66,6.972056152906256
67,1.1794792172474675
68,6.228120180815062
69,-2.218667537480267
70,0.9550523987154969
71,3.5800320190757713
72,3.7643196029295853
73,-5429.453660927013
74,3.9249212431140985
75,0.0
76,0.0
77,0.0
78,4.572136089592959
79,2.811676953008373
80,1.4530048292040896
81,3.6
82,2.3023030300898815
83,-123.36862964857359
84,1.3333429457938037
85,2.0106313594753575
86,4.545760355913378
87,6.468991106367238
88,0.0
89,-49.09744058333001
90,0.0
91,0.0
92,0.0
93,-53.47061694792507
2,1, 4, 1, 0, 3,30.00,45.00,Tuesday
7,3.6
8,-8.352610637864302
9,0.0
10,0.0
11,19.12
12,0.0
13,0.0
14,0.0
15,0.0
16,0.0
17,0.0
18,0.0
19,0.0
20,0.0
21,0.0
22,0.0
23,0.0
24,-115.28134360756955
25,6.0835256481756526
26,1.6700525112169802
27,0.9308707462053553
28,3.5948910030432133
29,3.6076836449513445
30,-522.2201953486518
31,1.4177128480997663
32,2.140387829528931
33,-71.029927919809
34,0.0
35,6.074254537317763
36,1.6695735154607962
37,0.9388043329269189
38,3.5948910030432133
39,3.607724356450376
40,-618.0166980994284
41,1.4177089769704383
42,2.140382193528085
43,-84.0996503853824
44,0.0
45,6.084083025512686
46,1.81551313849784
47,0.9298756335183401
48,3.5948910030432133
49,4.2854608831819085
50,-661.1580600749891
51,1.4189426772219491
52,2.1421783330116666
53,-77.79009673320324
54,0.0
55,6.0840830589411805
56,1.8155132506873264
57,0.9298760381443276
58,3.5948910030432133
59,4.285460959728778
60,-661.1580866502215
61,1.4189426642279448
62,2.142178314093881
63,-77.79009114157836
64,0.0
65,6.9087646978943615
66,6.94030193808832
67,1.1829245748071087
68,6.20148392736896
69,-2.115496596349454
70,0.9457638451573126
71,3.5800320190757713
72,4.02863463452214
73,-5683.527098298626
74,3.9234156136846976
75,0.0
76,0.0
77,0.0
78,4.544761843033882
79,2.7886659149949082
80,1.4513987701582847
81,3.6
82,2.4335976533185777
83,-124.64783583445686
84,1.3318670646398132
85,2.010370845947596
86,4.677866711657429
87,6.437116566582943
88,0.0
89,-45.06898619049823
90,0.0
91,0.0
92,0.0
93,-47.532905495092216
2,1, 4, 1, 0, 3,45.00,60.00,Tuesday
7,3.6
8,-8.530905468618926
9,0.0
10,0.0
11,19.12
12,0.0
13,0.0
14,0.0
15,0.0
16,0.0
17,0.0
18,0.0
19,0.0
20,0.0
21,0.0
22,0.0
23,0.0
24,-114.98510615011799
25,6.0583467821248504
26,1.6891524789421946
27,0.9263641498534937
28,3.5948910030432133
29,3.821243491432238
30,-541.0297547272638
31,1.4164793764008756
32,2.1406114942271093
33,-70.3324542782097
34,0.0
35,6.049061969127449
36,1.688683549079612
37,0.9343907859590956
38,3.5948910030432133
39,3.821277933183998
40,-640.2847186659071
41,1.4164755564575704
42,2.140605930337283
43,-83.27361020824951
44,0.0
45,6.0582543926967976
46,1.8250836476614405
47,0.92587714080901
48,3.5948910030432133
49,4.474785871936106
50,-680.6190246679719
51,1.4176398275235256
52,2.1423017234605735
53,-77.3761538643185
54,0.0
55,6.058254390342776
56,1.8250836400284591
57,0.9258771115854599
58,3.5948910030432133
59,4.474785867626156
60,-680.6190228786007
61,1.417639828418869
62,2.1423017247646468
63,-77.37615424513402
64,0.0
65,6.877527364791034
66,6.9087646978943615
67,1.1832066991875418
68,6.176214462145289
69,-2.017232753170655
70,0.9388576076809567
71,3.5800320190757713
72,4.295326651905038
73,-5933.115900851169
74,3.921813750160021
75,0.0
76,0.0
77,0.0
78,4.519148551794331
79,2.7670126936146744
80,1.4501964182246487
81,3.6
82,2.565043170058964
83,-125.9804772136113
84,1.3303965058717042
85,2.010120005739652
86,4.802147664523961
87,6.407702919503346
88,0.0
89,-42.786347102744706
90,0.0
91,0.0
92,0.0
93,-43.86782324108523
2,1, 4, 1, 0, 4, 0.00,15.00,Tuesday
7,3.625
8,-8.233947202588524
9,0.0
10,0.0
11,19.12
12,0.0
13,0.0
14,0.0
15,0.0
16,0.0
17,0.0
18,0.0
19,0.0
20,0.0
21,0.0
22,0.0
23,0.0
24,-112.5515189679204
25,6.042107440331957
26,1.767494120902552
27,0.9226510874511509
28,3.619891003043213
29,3.875860187745757
30,-532.8692942981289
31,1.418942769250883
32,2.141125144218153
33,-68.38025235321696
34,0.0
35,6.032970795874137
36,1.7670208608740774
37,0.9307534709309966
38,3.619891003043213
39,3.8758925906389337
40,-630.6237874085023
41,1.4189390265187758
42,2.1411196964177224
43,-80.96297073972669
44,0.0
45,6.041796551121457
46,1.8975188929109998
47,0.9227324139103893
48,3.619891003043213
49,4.522292214934184
50,-669.2190100376164
51,1.4200280591732681
52,2.142704847844683
53,-75.31645010967463
54,0.0
55,6.041796551282919
56,1.89751889343614
57,0.9227324159823513
58,3.619891003043213
59,4.522292215214567
60,-669.219010161705
61,1.4200280591123053
62,2.1427048477559514
63,-75.3164500835922
64,0.0
65,6.847100495862381
66,6.877527364791034
67,1.181679724240658
68,6.158428850957233
69,-1.8293714142998574
70,0.9333209780792714
71,3.605032019075771
72,4.362120254928747
73,-5846.612857744301
74,3.9304659120137435
75,0.0
76,0.0
77,0.0
78,4.528990960552392
79,2.8132237976608963
80,1.4419766916708634
81,3.625
82,2.6074778420599887
83,-123.51721061477681
84,1.3323972708939682
85,2.0101570349408306
86,4.6816749618587625
87,6.38089740695273
88,0.0
89,-37.960113192684375
90,0.0
91,0.0
92,0.0
93,-39.982055896734
2,1, 4, 1, 0, 4,15.00,30.00,Tuesday
7,3.6500000000000004
8,-7.937984219818816
9,0.0
10,0.0
11,19.12
12,0.0
13,0.0
14,0.0
15,0.0
16,0.0
17,0.0
18,0.0
19,0.0
20,0.0
21,0.0
22,0.0
23,0.0
24,-110.28723867683357
25,6.026412895611646
26,1.8433648219671817
27,0.9132539351516105
28,3.6448910030432136
29,3.926677478960956
30,-524.2989258722373
31,1.4218753264421649
32,2.1423273226475934
33,-66.5397264196627
34,0.0
35,6.017426199338919
36,1.8428992985330233
37,0.9213909053057704
38,3.6448910030432136
39,3.9267086431797553
40,-620.4810692109492
41,1.4218715449626074
42,2.142321822124644
43,-78.78399594344454
44,0.0
45,6.025907177596162
46,1.9680311245873294
47,0.9135331976454372
48,3.6448910030432136
49,4.567377230305992
50,-657.5177549701326
51,1.4229145943136696
52,2.143839028503016
53,-73.36508958581835
54,0.0
55,6.025907177585182
56,1.968031124551753
57,0.913533197500445
58,3.6448910030432136
59,4.567377230288257
60,-657.5177549617109
61,1.4229145943178698
62,2.143839028509111
63,-73.36508958758344
64,0.0
65,6.817243917562656
66,6.847100495862381
67,1.178635803242668
68,6.14130409256907
69,-1.645967549113143
70,0.9210378103841013
71,3.6300320190757716
72,4.428861349277356
73,-5759.398611691145
74,3.941098948386163
75,0.0
76,0.0
77,0.0
78,4.541120218826222
79,2.860251772824256
80,1.4344451329208336
81,3.6500000000000004
82,2.6340805404639536
83,-121.08672474153931
84,1.334902363125886
85,2.010933887832422
86,4.556415507197583
87,6.356744858313746
88,0.0
89,-34.02434998457833
90,0.0
91,0.0
92,0.0
93,-36.02829016976925
2,1, 4, 1, 0, 4,30.00,45.00,Tuesday
7,3.6750000000000003
8,-7.643008771424832
9,0.0
10,0.0
11,19.12
12,0.0
13,0.0
14,0.0
15,0.0
16,0.0
17,0.0
18,0.0
19,0.0
20,0.0
21,0.0
22,0.0
23,0.0
24,-108.06224127590816
25,6.012021581033392
26,1.9188721127028596
27,0.9055899026311102
28,3.6698910030432135
29,3.978114624682042
30,-515.6457948514148
31,1.4247849303726656
32,2.143501260283013
33,-64.709669364561
34,0.0
35,6.00318408923136