Program Version,EnergyPlus, Version 23.2.0-7636e6b3e9, YMD=2026.07.22 13:32
1,5,Environment Title[],Latitude[deg],Longitude[deg],Time Zone[],Elevation[m]
2,8,Day of Simulation[],Month[],Day of Month[],DST Indicator[1=yes 0=no],Hour[],StartMinute[],EndMinute[],DayType
3,5,Cumulative Day of Simulation[],Month[],Day of Month[],DST Indicator[1=yes 0=no],DayType  ! When Daily Report Variables Requested
4,2,Cumulative Days of Simulation[],Month[]  ! When Monthly Report Variables Requested
5,1,Cumulative Days of Simulation[] ! When Run Period Report Variables Requested
6,1,Calendar Year of Simulation[] ! When Annual Report Variables Requested
7,1,Environment,Site Outdoor Air Drybulb Temperature [C] !TimeStep
8,1,Environment,Site Sky Temperature [C] !TimeStep
9,1,Environment,Site Diffuse Solar Radiation Rate per Area [W/m2] !TimeStep
10,1,Environment,Site Direct Solar Radiation Rate per Area [W/m2] !TimeStep
11,1,Environment,Site Ground Temperature [C] !TimeStep
12,1,ZONE ONE,Zone Total Internal Radiant Heating Rate [W] !TimeStep
13,1,ZONE ONE,Zone Total Internal Convective Heating Rate [W] !TimeStep
14,1,ZONE ONE,Zone Windows Total Transmitted Solar Radiation Rate [W] !TimeStep
15,1,ZN001:WALL001,Surface Outside Face Sunlit Fraction [] !TimeStep
16,1,ZN001:WALL001,Surface Outside Face Incident Solar Radiation Rate per Area [W/m2] !TimeStep
17,1,ZN001:WALL002,Surface Outside Face Incident Solar Radiation Rate per Area [W/m2] !TimeStep
18,1,ZN001:WALL003,Surface Outside Face Incident Solar Radiation Rate per Area [W/m2] !TimeStep
19,1,ZN001:WALL004,Surface Outside Face Incident Solar Radiation Rate per Area [W/m2] !TimeStep
20,1,ZN001:ROOF001,Surface Outside Face Incident Solar Radiation Rate per Area [W/m2] !TimeStep
21,1,ZN001:WALL001:WIN001,Surface Outside Face Sunlit Fraction [] !TimeStep
22,1,ZN001:WALL001:WIN001,Surface Outside Face Incident Solar Radiation Rate per Area [W/m2] !TimeStep
23,1,ZN001:WALL001:WIN001,Surface Window Transmitted Solar Radiation Rate [W] !TimeStep
24,1,ZN001:WALL001:WIN001,Surface Window Net Heat Transfer Rate [W] !TimeStep
25,1,ZN001:WALL001,Surface Inside Face Temperature [C] !TimeStep
26,1,ZN001:WALL001,Surface Outside Face Temperature [C] !TimeStep
27,1,ZN001:WALL001,Surface Outside Face Convection Heat Transfer Coefficient [W/m2-K] !TimeStep
28,1,ZN001:WALL001,Surface Outside Face Net Thermal Radiation Heat Gain Rate [W] !TimeStep
29,1,ZN001:WALL001,Surface Outside Face Thermal Radiation to Sky Heat Transfer Coefficient [W/m2-K] !TimeStep
30,1,ZN001:WALL001,Surface Outside Face Thermal Radiation to Ground Heat Transfer Coefficient [W/m2-K] !TimeStep
31,1,ZN001:WALL001,Surface Outside Face Thermal Radiation to Air Heat Transfer Rate [W] !TimeStep
32,1,ZN001:WALL001,Surface Outside Face Solar Radiation Heat Gain Rate [W] !TimeStep
33,1,ZN001:WALL002,Surface Inside Face Temperature [C] !TimeStep
34,1,ZN001:WALL002,Surface Outside Face Temperature [C] !TimeStep
35,1,ZN001:WALL002,Surface Outside Face Convection Heat Transfer Coefficient [W/m2-K] !TimeStep
36,1,ZN001:WALL002,Surface Outside Face Net Thermal Radiation Heat Gain Rate [W] !TimeStep
37,1,ZN001:WALL002,Surface Outside Face Thermal Radiation to Sky Heat Transfer Coefficient [W/m2-K] !TimeStep
38,1,ZN001:WALL002,Surface Outside Face Thermal Radiation to Ground Heat Transfer Coefficient [W/m2-K] !TimeStep
39,1,ZN001:WALL002,Surface Outside Face Thermal Radiation to Air Heat Transfer Rate [W] !TimeStep
40,1,ZN001:WALL002,Surface Outside Face Solar Radiation Heat Gain Rate [W] !TimeStep
41,1,ZN001:WALL003,Surface Inside Face Temperature [C] !TimeStep
42,1,ZN001:WALL003,Surface Outside Face Temperature [C] !TimeStep
43,1,ZN001:WALL003,Surface Outside Face Convection Heat Transfer Coefficient [W/m2-K] !TimeStep
44,1,ZN001:WALL003,Surface Outside Face Net Thermal Radiation Heat Gain Rate [W] !TimeStep
45,1,ZN001:WALL003,Surface Outside Face Thermal Radiation to Sky Heat Transfer Coefficient [W/m2-K] !TimeStep
46,1,ZN001:WALL003,Surface Outside Face Thermal Radiation to Ground Heat Transfer Coefficient [W/m2-K] !TimeStep
47,1,ZN001:WALL003,Surface Outside Face Thermal Radiation to Air Heat Transfer Rate [W] !TimeStep
48,1,ZN001:WALL003,Surface Outside Face Solar Radiation Heat Gain Rate [W] !TimeStep
49,1,ZN001:WALL004,Surface Inside Face Temperature [C] !TimeStep
50,1,ZN001:WALL004,Surface Outside Face Temperature [C] !TimeStep
51,1,ZN001:WALL004,Surface Outside Face Convection Heat Transfer Coefficient [W/m2-K] !TimeStep
52,1,ZN001:WALL004,Surface Outside Face Net Thermal Radiation Heat Gain Rate [W] !TimeStep
53,1,ZN001:WALL004,Surface Outside Face Thermal Radiation to Sky Heat Transfer Coefficient [W/m2-K] !TimeStep
54,1,ZN001:WALL004,Surface Outside Face Thermal Radiation to Ground Heat Transfer Coefficient [W/m2-K] !TimeStep
55,1,ZN001:WALL004,Surface Outside Face Thermal Radiation to Air Heat Transfer Rate [W] !TimeStep
56,1,ZN001:WALL004,Surface Outside Face Solar Radiation Heat Gain Rate [W] !TimeStep
57,1,ZN001:FLR001,Surface Inside Face Temperature [C] !TimeStep
58,1,ZN001:FLR001,Surface Outside Face Temperature [C] !TimeStep
59,1,ZN001:ROOF001,Surface Inside Face Temperature [C] !TimeStep
60,1,ZN001:ROOF001,Surface Outside Face Temperature [C] !TimeStep
61,1,ZN001:ROOF001,Surface Outside Face Convection Heat Transfer Coefficient [W/m2-K] !TimeStep
62,1,ZN001:ROOF001,Surface Outside Face Net Thermal Radiation Heat Gain Rate [W] !TimeStep
63,1,ZN001:ROOF001,Surface Outside Face Thermal Radiation to Sky Heat Transfer Coefficient [W/m2-K] !TimeStep
64,1,ZN001:ROOF001,Surface Outside Face Thermal Radiation to Ground Heat Transfer Coefficient [W/m2-K] !TimeStep
65,1,ZN001:ROOF001,Surface Outside Face Thermal Radiation to Air Heat Transfer Rate [W] !TimeStep
66,1,ZN001:ROOF001,Surface Outside Face Solar Radiation Heat Gain Rate [W] !TimeStep
67,1,ZN001:WALL001:WIN001,Surface Inside Face Temperature [C] !TimeStep
68,1,ZN001:WALL001:WIN001,Surface Outside Face Temperature [C] !TimeStep
69,1,ZN001:WALL001:WIN001,Surface Outside Face Convection Heat Transfer Coefficient [W/m2-K] !TimeStep
70,1,ZN001:WALL001:WIN001,Surface Outside Face Net Thermal Radiation Heat Gain Rate [W] !TimeStep
71,1,ZN001:WALL001:WIN001,Surface Outside Face Thermal Radiation to Sky Heat Transfer Coefficient [W/m2-K] !TimeStep
72,1,ZN001:WALL001:WIN001,Surface Outside Face Thermal Radiation to Ground Heat Transfer Coefficient [W/m2-K] !TimeStep
73,1,ZN001:WALL001:WIN001,Surface Outside Face Thermal Radiation to Air Heat Transfer Rate [W] !TimeStep
74,1,ZONE ONE,Zone Mean Air Temperature [C] !TimeStep
75,1,ZONE ONE,Zone Air Heat Balance Internal Convective Heat Gain Rate [W] !TimeStep
76,1,ZONE ONE,Zone Air Heat Balance Surface Convection Rate [W] !TimeStep
77,1,ZONE ONE,Zone Air Heat Balance Outdoor Air Transfer Rate [W] !TimeStep
78,1,ZONE ONE,Zone Air Heat Balance Air Energy Storage Rate [W] !TimeStep
End of Data Dictionary
1,RUN PERIOD 1,  55.95,  -3.37,   0.00,  41.10
2,1,10, 1, 0, 1, 0.00,15.00,Sunday
7,11.325
8,-11.065747629531984
9,0.0
10,0.0
11,19.21
12,0.0
13,0.0
14,0.0
15,0.0
16,0.0
17,0.0
18,0.0
19,0.0
20,0.0
21,0.0
22,0.0
23,0.0
24,-302.52648752734666
25,18.963464605493215
26,8.53813765874843
27,5.609540416550661
28,-1186.1100414002385
29,1.453548426243126
30,2.317008302491669
31,-111.12219592645123
32,0.0
33,18.946568525968512
34,8.610163065357195
35,5.8892494875817185
36,-1426.3824413031787
37,1.4535899757845006
38,2.3170702739252
39,-128.13429984831163
40,0.0
41,18.946602238707467
42,8.610302825663423
43,5.889302850960186
44,-1426.377150930021
45,1.4535416654294222
46,2.3169982186856948
47,-128.12370657494066
48,0.0
49,18.94208217248888
50,8.537255009361548
51,5.609553419522966
52,-1403.7318699081648
53,1.4535416654294222
54,2.3169982186856948
55,-131.57779493417317
56,0.0
57,20.58129275546112
58,20.653000342669717
59,19.266640211033838
60,3.0158677400423888
61,6.436203854638221
62,-13079.511541901746
63,3.9991630743030764
64,0.0
65,0.0
66,0.0
67,15.345548082477194
68,11.024843428536883
69,3.484362485295191
70,-289.0476487376232
71,1.3745876593957393
72,2.189356482299483
73,1.884899758804173
74,19.671126303616745
75,0.0
76,-110.70684705183126
77,0.0
78,-107.98487964643606
2,1,10, 1, 0, 1,15.00,30.00,Sunday
7,11.45
8,-11.433930583453161
9,0.0
10,0.0
11,19.21
12,0.0
13,0.0
14,0.0
15,0.0
16,0.0
17,0.0
18,0.0
19,0.0
20,0.0
21,0.0
22,0.0
23,0.0
24,-299.9726488342043
25,18.86928515988907
26,8.335812622030568
27,4.740725275376152
28,-1137.826082588659
29,1.4493819571611857
30,2.3166193468594747
31,-124.17694070180995
32,0.0
33,18.85717244404299
34,8.484202222902786
35,5.225377959959687
36,-1393.39509019087
37,1.449971968884467
38,2.3175004068628544
39,-140.0274185431122
40,0.0
41,18.857169832079393
42,8.484194053497099
43,5.225374020744393
44,-1393.3936918003578
45,1.4499731139627092
46,2.317502116789411
47,-140.0279082367182
48,0.0
49,18.848213220620302
50,8.33487472379602
51,4.740763080111087
52,-1346.5605397011457
53,1.4493747280325182
54,2.3166085515927795
55,-147.03334010589046
56,0.0
57,20.508269558972152
58,20.58129275546112
59,19.16128682649552
60,2.0384734816942967
61,5.367375818377779
62,-12432.595970387629
63,3.973258183922618
64,0.0
65,0.0
66,0.0
67,15.296547721612114
68,11.010932862458844
69,2.987834322059322
70,-289.3419315036732
71,1.371881017732022
72,2.1907900298794996
73,2.7588365791260725
74,19.590390855085502
75,0.0
76,-119.50768511262086
77,0.0
78,-115.07457801529901
2,1,10, 1, 0, 1,30.00,45.00,Sunday
7,11.575
8,-11.80367401104263
9,0.0
10,0.0
11,19.21
12,0.0
13,0.0
14,0.0
15,0.0
16,0.0
17,0.0
18,0.0
19,0.0
20,0.0
21,0.0
22,0.0
23,0.0
24,-297.7479641096587
25,18.76456302758707
26,8.08641955562158
27,3.9172193402804343
28,-1077.024362631362
29,1.4448462591902933
30,2.315685019716126
31,-139.07412863850558
32,0.0
33,18.757382692975455
34,8.313710722891988
35,4.535022563395171
36,-1346.3514763630735
37,1.446059777059796
38,2.317499346576972
39,-154.00278252614987
40,0.0
41,18.757382901403428
42,8.313711413098881
43,4.535022975423707
44,-1346.351625667159
45,1.4460597102268842
46,2.3174992466565145
47,-154.00274324252035
48,0.0
49,18.74382711193743
50,8.085426553042513
51,3.9172878274354748
52,-1274.572078118963
53,1.44483859193059
54,2.315673556277066
55,-164.66977035741735
56,0.0
57,20.433253915051683
58,20.508269558972152
59,19.042935314917194
60,0.8141489561069568
61,4.323238463608248
62,-11556.055324835992
63,3.9432585038138566
64,0.0
65,0.0
66,0.0
67,15.23791460800112
68,10.982346357650727
69,2.5016646672742864
70,-289.0036388074312
71,1.3690678038634574
72,2.1920748838244872
73,3.72577867388898
74,19.50305544055707
75,0.0
76,-129.96396061224584
77,0.0
78,-124.51607078197402
2,1,10, 1, 0, 1,45.00,60.00,Sunday
7,11.7
8,-12.174993432191059
9,0.0
10,0.0
11,19.21
12,0.0
13,0.0
14,0.0
15,0.0
16,0.0
17,0.0
18,0.0
19,0.0
20,0.0
21,0.0
22,0.0
23,0.0
24,-295.80227607158093
25,18.650776250792788
26,7.799833641322314
27,3.175990874764767
28,-1006.3556884311711
29,1.4399241345738618
30,2.3141776485408756
31,-155.40506119645292
32,0.0
33,18.64725257994606
34,8.086035944724653
35,3.819877249393488
36,-1281.3303443221034
37,1.4417793471310134
38,2.3169547589828947
39,-170.6426155865279
40,0.0
41,18.647252562207488
42,8.086035875146626
43,3.8198771962617566
44,-1281.3303280212801
45,1.4417793527677976
46,2.3169547674205684
47,-170.64261949791515
48,0.0
49,18.630358339220876
50,7.798787438755201
51,3.176095710382003
52,-1190.9048061897522
53,1.4399160339343962
54,2.3141655222712543
55,-184.0032174396734
56,0.0
57,20.35593021882724
58,20.433253915051683
59,18.91162309627803
60,-0.6897903980319975
61,3.3400303508704274
62,-10424.38275956506
63,3.9078846700307315
64,0.0
65,0.0
66,0.0
67,15.167771465596502
68,10.937800392013855
69,2.0420416208124306
70,-287.97843426224193
71,1.3661348713293102
72,2.19319092919892
73,4.793683744913231
74,19.4080195229546
75,0.0
76,-141.5041042293102
77,0.0
78,-135.535841557047
2,1,10, 1, 0, 2, 0.00,15.00,Sunday
7,11.849999999999998
8,-12.237034327235847
9,0.0
10,0.0
11,19.21
12,0.0
13,0.0
14,0.0
15,0.0
16,0.0
17,0.0
18,0.0
19,0.0
20,0.0
21,0.0
22,0.0
23,0.0
24,-290.95670315026734
25,18.587066598820314
26,7.887833558909263
27,3.133505357041696
28,-1005.3136802075763
29,1.4371067775309263
30,2.31252710535801
31,-157.7661374717972
32,0.0
33,18.583198569766854
34,8.169752247263448
35,3.756059361728478
36,-1279.1205910494664
37,1.4394395584801656
38,2.3160210116514213
39,-173.7067685832608
40,0.0
41,18.583198571257242
42,8.169752253793044
43,3.756059367246006
44,-1279.1205925414517
45,1.4394395579126507
46,2.316021010801461
47,-173.70676821088807
48,0.0
49,18.566741397184686
50,7.886766509608587
51,3.1336158624255854
52,-1189.6649199814347
53,1.4370982561170458
54,2.3125143421548446
55,-186.79893259092412
56,0.0
57,20.280863545170305
58,20.35593021882724
59,18.84037631993126
60,-0.7434040697573574
61,3.255201407854263
62,-10339.43401003655
63,3.873197204028763
64,0.0
65,0.0
66,0.0
67,15.12960036465438
68,10.968396670101129
69,2.0407052418706804
70,-285.83006139070096
71,1.3653383331938957
72,2.1944127470782675
73,5.54993181072018
74,19.316400194478224
75,0.0
76,-122.94237905011626
77,0.0
78,-130.7045160376588
2,1,10, 1, 0, 2,15.00,30.00,Sunday
7,12.0
8,-12.299119510850744
9,0.0
10,0.0
11,19.21
12,0.0
13,0.0
14,0.0
15,0.0
16,0.0
17,0.0
18,0.0
19,0.0
20,0.0
21,0.0
22,0.0
23,0.0
24,-286.72990248710573
25,18.514520199026077
26,7.948426046148768
27,3.0545377530833964
28,-999.336177940551
29,1.4373422990120799
30,2.3154493836857157
31,-161.53464499094787
32,0.0
33,18.51133135261294
34,8.235721798577583
35,3.6683487961710073
36,-1273.7460392516687
37,1.4396407871569386
38,2.3188936119497923
39,-177.8988759382007
40,0.0
41,18.5113313524839
42,8.235721797973683
43,3.668348795631087
44,-1273.7460391141044
45,1.4396407872102124
46,2.3188936120296106
47,-177.89887597290303
48,0.0
49,18.494471673106844
50,7.947366174216938
51,3.054654286269148
52,-1182.5910822303752
53,1.4373336053554147
54,2.315436356134136
55,-191.25943796968863
56,0.0
57,20.20529889993205
58,20.280863545170305
59,18.759261289723156
60,-0.9034648756531902
61,3.1443690723597095
62,-10244.636619573854
63,3.8706806885579232
64,0.0
65,0.0
66,0.0
67,15.107868625186484
68,11.0064781749943
69,2.0169999701215082
70,-283.9958876212325
71,1.3651217220950715
72,2.1965041271274193
73,6.260696078521328
74,19.23387320217101
75,0.0
76,-108.54902338290802
77,0.0
78,-117.76687428747559
2,1,10, 1, 0, 2,30.00,45.00,Sunday
7,12.150000000000002
8,-12.361249056876431
9,0.0
10,0.0
11,19.21
12,0.0
13,0.0
14,0.0
15,0.0
16,0.0
17,0.0
18,0.0
19,0.0
20,0.0
21,0.0
22,0.0
23,0.0
24,-282.54358492000006
25,18.447464233125444
26,8.011799457319562
27,2.9812004032728145
28,-993.8887168250407
29,1.437354372167888
30,2.3180393225286062
31,-165.1773255260352
32,0.0
33,18.444688709860554
34,8.301829001098294
35,3.5821289095804434
36,-1268.2443588830683
37,1.439697075023385
38,2.321551535721182
39,-182.07747651483868
40,0.0
41,18.4446887098719
42,8.301829001154484
43,3.5821289096323996
44,-1268.2443588959222
45,1.4396970750184575
46,2.3215515357137932
47,-182.07747651159704
48,0.0
49,18.427651740652703
50,8.010746109158545
51,2.9813195607082923
52,-1176.1447041240565
53,1.4373457357171109
54,2.318026374313184
55,-195.57105219901425
56,0.0
57,20.130107576751172
58,20.20529889993205
59,18.683361758034145
60,-1.0593828958900406
61,3.0385022860748516
62,-10147.549670820456
63,3.865815222016064
64,0.0
65,0.0
66,0.0
67,15.085284259163927
68,11.043659591686946
69,1.99213981400747
70,-282.11720702233293
71,1.3649626728284456
72,2.1986836119170436
73,6.978508373374444
74,19.158742828715003
75,0.0
76,-102.7411533687339
77,0.0
78,-107.23964439322887
2,1,10, 1, 0, 2,45.00,60.00,Sunday
7,12.3
8,-12.423423039347256
9,0.0
10,0.0
11,19.21
12,0.0
13,0.0
14,0.0
15,0.0
16,0.0
17,0.0
18,0.0
19,0.0
20,0.0
21,0.0
22,0.0
23,0.0
24,-278.4972419116186
25,18.383336136840597
26,8.074934688359628
27,2.910432815620476
28,-988.3643517916396
29,1.4373889122192844
30,2.320665299546425
31,-168.8398935822207
32,0.0
33,18.380905747125652
34,8.366318423503065
35,3.496030843084606
36,-1262.2069596250765
37,1.439754302978775
38,2.3242132733597236
39,-186.3422193575742
40,0.0
41,18.380905747124633
42,8.366318423497757
43,3.4960308430795792
44,-1262.206959623856
45,1.4397543029792343
46,2.3242132733604066
47,-186.34221935788068
48,0.0
49,18.363769520009196
50,8.07388931515492
51,2.9105545488164664
52,-1169.6077361661935
53,1.437380327548869
54,2.320652422618003
55,-199.90613839439303
56,0.0
57,20.055449161663184
58,20.130107576751172
59,18.610202292516384
60,-1.2193254578758874
61,2.935548759352711
62,-10047.351962189727
63,3.8610444316376733
64,0.0
65,0.0
66,0.0
67,15.065763958484126
68,11.082186233890297
69,1.9687457483744482
70,-280.2901525197219
71,1.3647964573206273
72,2.2008542894891714
73,7.689290912164266
74,19.08765726896175
75,0.0
76,-100.17442665554049
77,0.0
78,-101.4910883016644
2,1,10, 1, 0, 3, 0.00,15.00,Sunday
7,12.425
8,-12.485641532491798
9,0.0
10,0.0
11,19.21
12,0.0
13,0.0
14,0.0
15,0.0
16,0.0
17,0.0
18,0.0
19,0.0
20,0.0
21,0.0
22,0.0
23,0.0
24,-274.638374610757
25,18.329024335726928
26,8.182729972770069
27,2.957374253214116
28,-999.002427099946
29,1.4374213201373025
30,2.32298148914919
31,-169.69745327096498
32,0.0
33,18.326906676697547
34,8.475911003328031
35,3.5480153021770446
36,-1275.450392210738
37,1.439798141844325
38,2.3265481541921282
39,-187.26096425242787
40,0.0
41,18.326906676697657
42,8.475911003328521
43,3.5480153021775056
44,-1275.4503922108456
45,1.439798141844281
46,2.3265481541920714
47,-187.2609642524
48,0.0
49,18.309632910669325
50,8.181699013174288
51,2.9574921527664277
52,-1182.2043641105947
53,1.437412799103731
54,2.322968702131263
55,-200.92061109648085
56,0.0
57,19.9820570023157
58,20.055449161663184
59,18.550809812023623
60,-1.0752670229270307
61,2.99701683665731
62,-10219.462515256468
63,3.8561882058800014
64,0.0
65,0.0
66,0.0
67,15.0466239977099
68,11.118563322156206
69,2.0180091542758394
70,-279.0672894193222
71,1.3646404084740398
72,2.2027517388875624
73,8.255874806452418
74,19.020048317251387
75,0.0
76,-94.31600943926004
77,0.0
78,-96.54976241980859
2,1,10, 1, 0, 3,15.00,30.00,Sunday
7,12.55
8,-12.54790461073378
9,0.0
10,0.0
11,19.21
12,0.0
13,0.0
14,0.0
15,0.0
16,0.0
17,0.0
18,0.0
19,0.0
20,0.0
21,0.0
22,0.0
23,0.0
24,-270.89637965604777
25,18.275067096208424
26,8.287358300234606
27,2.9996744257550825
28,-1009.0789903133007
29,1.437817667492705
30,2.3258459373451963
31,-170.72359319312594
32,0.0
33,18.27332824819611
34,8.582884653248776
35,3.5958058855121777
36,-1288.2245220648445
37,1.4402100631842265
38,2.329437499817807
39,-188.35048175233152
40,0.0
41,18.273328248196098
42,8.582884653248719
43,3.5958058855121333
44,-1288.2245220648347
45,1.4402100631842318
46,2.329437499817807
47,-188.35048175233422
48,0.0
49,18.255886136618578
50,8.286342423310751
51,2.9997884111822177
52,-1194.1365119631605
53,1.4378092607732418
54,2.3258333165013703
55,-202.1346182987272
56,0.0
57,19.909460807735545
58,19.9820570023157
59,18.491215999427432
60,-0.956035772498401
61,3.0516850338778747
62,-10386.968447604939
63,3.858028396678439
64,0.0
65,0.0
66,0.0
67,15.032456677727566
68,11.158131911610553
69,2.0667723364909065
70,-277.9772414596848
71,1.364467546138853
72,2.2046254776337575
73,8.803377633616325
74,18.955655340251642
75,0.0
76,-89.78491322386198
77,0.0
78,-91.97742314567586
2,1,10, 1, 0, 3,30.00,45.00,Sunday
7,12.675
8,-12.610212348692698
9,0.0
10,0.0
11,19.21
12,0.0
13,0.0
14,0.0
15,0.0
16,0.0
17,0.0
18,0.0
19,0.0
20,0.0
21,0.0
22,0.0
23,0.0
24,-267.1716826164223
25,18.223168140541546
26,8.392874143866567
27,3.0428049518597993
28,-1019.3706031993089
29,1.4381881843192876
30,2.3286739424354224
31,-171.7134254546029
32,0.0
33,18.221769859621382
34,8.690269443572333
35,3.6436444460545614
36,-1301.1100596300996
37,1.4406006047955948
38,2.332297108649643
39,-189.4201405048319
40,0.0
41,18.22176985962137
42,8.690269443572333
43,3.6436444460545667
44,-1301.1100596301003
45,1.4406006047955944
46,2.3322971086496405
47,-189.42014050483175
48,0.0
49,18.204193132979334
50,8.391873633455388
51,3.042915006963317
52,-1206.3233237739669
53,1.4381798975886602
54,2.328661496427675
55,-203.30563282539453
56,0.0
57,19.837787421949272
58,19.909460807735545
59,18.433696931897128
60,-0.8336098685907691
61,3.107483101523048
62,-10556.038631931762
63,3.85932205426559
64,0.0
65,0.0
66,0.0
67,15.019545916527363
68,11.198815304942855
69,2.1138154280426598
70,-276.931102691469
71,1.3643191044406602
72,2.2065373735473295
73,9.344819691823822
74,18.89375254688966
75,0.0
76,-86.98761066397111
77,0.0
78,-88.43924501912637
2,1,10, 1, 0, 3,45.00,60.00,Sunday
7,12.8
8,-12.672564821184324
9,0.0
10,0.0
11,19.21
12,0.0
13,0.0
14,0.0
15,0.0
16,0.0
17,0.0
18,0.0
19,0.0
20,0.0
21,0.0
22,0.0
23,0.0
24,-263.47344678833343
25,18.172764387619512
26,8.498822591989068
27,3.0862945311247962
28,-1029.7830225311852
29,1.4385659271963096
30,2.3315151260082345
31,-172.6887445051098
32,0.0
33,18.171691538906728
34,8.797781509584434
35,3.6912679930779015
36,-1314.0421604968328
37,1.4409945040861543
38,2.335164108834903
39,-190.48639276550597
40,0.0
41,18.171691538906735
42,8.797781509584434
43,3.6912679930779015
44,-1314.0421604968328
45,1.4409945040861543
46,2.335164108834903
47,-190.48639276550597
48,0.0
49,18.15399837919521
50,8.49783756229191
51,3.0864007315819775
52,-1218.653181464463
53,1.4385577628243744
54,2.331502858552838
55,-204.4594615265931
56,0.0
57,19.767061709183814
58,19.837787421949272
59,18.377657735588883
60,-0.7105120300214314
61,3.1637274553292465
62,-10726.058763636325
63,3.8606863778912226
64,0.0
65,0.0
66,0.0
67,15.008316186233515
68,11.240864049022377
69,2.1597902728979967
70,-275.93968191833187
71,1.3641790519502388
72,2.208463399409915
73,9.878618391899748
74,18.83363776963576
75,0.0
76,-84.94188313616522
77,0.0
78,-85.90242555746478
2,1,10, 1, 0, 4, 0.00,15.00,Sunday
7,12.875000000000002
8,-12.734962103221733
9,0.0
10,0.0
11,19.21
12,0.0
13,0.0
14,0.0
15,0.0
16,0.0
17,0.0
18,0.0
19,0.0
20,0.0
21,0.0
22,0.0
23,0.0
24,-260.6612727003266
25,18.119184801073445
26,8.563053463442786
27,3.124965472385671
28,-1038.3416388155115
29,1.4389471900576414
30,2.33374405362063
31,-173.28713458527199
32,0.0
33,18.118377941697915
34,8.863499306003247
35,3.7347197597784914
36,-1324.734131116527
37,1.4413894437276227
38,2.337414713114111
39,-191.11276071755006
40,0.0
41,18.11837794169789
42,8.863499306003249
43,3.7347197597784914
44,-1324.7341311165271
45,1.4413894437276227
46,2.337414713114111
47,-191.11276071754997
48,0.0
49,18.100578627635162
50,8.562087541417894
51,3.1250683794468186
52,-1228.7898760194087
53,1.4389391490514802
54,2.3337319678155275
55,-205.1669308419193
56,0.0
57,19.697016178125587
58,19.767061709183814
59,18.32032615735107
60,-0.6107771735376833
61,3.2194040214329513
62,-10875.322767398018
63,3.86206580318555
64,0.0
65,0.0
66,0.0
67,14.984609295668179
68,11.25349807090754
69,2.193763064444445
70,-275.0932583368202
71,1.3640493241735605
72,2.209824197635929
73,10.278509274243588
74,18.774189884707187
75,0.0
76,-85.00719787407051
77,0.0
78,-84.96696401358712
2,1,10, 1, 0, 4,15.00,30.00,Sunday
7,12.95
8,-12.797404270015761
9,0.0
10,0.0
11,19.21
12,0.0
13,0.0
14,0.0
15,0.0
16,0.0
17,0.0
18,0.0
19,0.0
20,0.0
21,0.0
22,0.0
23,0.0
24,-257.86262027101543
25,18.067027367035926
26,8.63105108528978
27,3.168528922914982
28,-1047.6330050671609
29,1.4389878027038745
30,2.3354622666950156
31,-173.6966673927466
32,0.0
33,18.066413928633732
34,8.931798659683551
35,3.781420509695085
36,-1335.9053148205207
37,1.4414426152603825
38,2.3391529629894734
39,-191.57475599473995
40,0.0
41,18.066413928633743
42,8.931798659683563
43,3.781420509695085
44,-1335.9053148205246
45,1.4414426152603825
46,2.3391529629894734
47,-191.57475599473935
48,0.0
49,18.04858202242114
50,8.630097472731617
51,3.1686278320682577
52,-1239.7919221495656
53,1.4389799163824004
54,2.3354504096510498
55,-205.65116516679262
56,0.0
57,19.627789099665243
58,19.697016178125587
59,18.264158205558847
60,-0.5087531954020328
61,3.2760857273182484
62,-11025.314033496728
63,3.862929848103989
64,0.0
65,0.0
66,0.0
67,14.962029579675118
68,11.270173904349122
69,2.2340627240784103
70,-274.4187279620207
71,1.3636922581133697
72,2.2108442573742284
73,10.653360332127242
74,18.714905741966465
75,0.0
76,-84.85583935969909
77,0.0
78,-84.7503538070941
2,1,10, 1, 0, 4,30.00,45.00,Sunday
7,13.024999999999999
8,-12.859891396975797
9,0.0
10,0.0
11,19.21
12,0.0
13,0.0
14,0.0
15,0.0
16,0.0
17,0.0
18,0.0
19,0.0
20,0.0
21,0.0
22,0.0
23,0.0
24,-255.0857122423436
25,18.01525915618987
26,8.699036732432205
27,3.2121514958999025
28,-1056.9471157441283
29,1.4390589835286887
30,2.337227585176545
31,-174.11060667540792
32,0.0
33,18.01483380194336
34,8.999919525038129
35,3.827768690126393
36,-1347.0443670508598
37,1.4415167116497096
38,2.340923825448573
39,-192.04842910266973
40,0.0
41,18.014833801943357
42,8.999919525038129
43,3.827768690126388
44,-1347.044367050859
45,1.4415167116497098
46,2.340923825448576
47,-192.04842910266996
48,0.0
49,17.996974431264416
50,8.698095439658568
51,3.2122472223274343
52,-1250.8208437309077
53,1.4390511962871102
54,2.337215873419467
55,-206.14060773696335
56,0.0
57,19.559323579396093
58,19.627789099665243
59,18.208431514421292
60,-0.4065183489356718
61,3.3331982849033763
62,-11175.746706516182
63,3.8638443070718265
64,0.0
65,0.0
66,0.0
67,14.939911570916138
68,11.287579946710196
69,2.273184024785833
70,-273.7740065868306
71,1.3633661853809251
72,2.21191159051089
73,11.023979385874615
74,18.65588163188075
75,0.0
76,-84.14707890101018
77,0.0
78,-84.39589772445942
2,1,10, 1, 0, 4,45.00,60.00,Sunday
7,13.1
8,-12.922423559710637
9,0.0
10,0.0
11,19.21
12,0.0
13,0.0
14,0.0
15,0.0
16,0.0
17,0.0
18,0.0
19,0.0
20,0.0
21,0.0
22,0.0
23,0.0
24,-252.30835661770274
25,17.96404616916273
26,8.767368239858644
27,3.256210119563015
28,-1066.3545136064513
29,1.4391298857186297
30,2.3389936463718106
31,-174.51108123020757
32,0.0
33,17.96379047034557
34,9.06808677377391
35,3.873981887987895
36,-1358.1995045477
37,1.4415891679907655
38,2.3426933856110823
39,-192.52027483330153
40,0.0
41,17.96379047034555
42,9.06808677377391
43,3.873981887987895
44,-1358.1995045477
45,1.4415891679907655
46,2.3426933856110823
47,-192.52027483330153
48,0.0
49,17.94592153688286
50,8.766439208740753
51,3.2563027316117434
52,-1261.9601774791488
53,1.439122197678875
54,2.3389820801777907
55,-206.6141140014038
56,0.0
57,19.491606099929644
58,19.559323579396093
59,18.153271508771976
60,-0.30394311879042235
61,3.390761501698154
62,-11326.608689061106
63,3.86476333105252
64,0.0
65,0.0
66,0.0
67,14.918309392042715
68,11.305581231933957
69,2.3118901995913568
70,-273.15331520563035
71,1.3630455343018002
72,2.2129877895615655
73,11.391212821225771
74,18.597350073827787
75,0.0
76,-83.2288644293112
77,0.0
78,-83.70861805273366
2,1,10, 1, 0, 5, 0.00,15.00,Sunday
7,13.174999999999999
8,-12.672564821184324
9,0.0
10,0.0
11,19.21
12,0.0
13,0.0
14,0.0
15,0.0
16,0.0
17,0.0
18,0.0
19,0.0
20,0.0
21,0.0
22,0.0
23,0.0
24,-248.5130213812257
25,17.91664645498726
26,8.861853160225882
27,3.256866060626865
28,-1059.242064552106
29,1.4416246810023392
30,2.3407648494022344
31,-173.85688855751917
32,0.0
33,17.91655014147412
34,9.160967802973587
35,3.8744913313760456
36,-1349.3619207451723
37,1.4440849105179943
38,2.344464408843503
39,-191.81028301302635
40,0.0
41,17.916550141474158
42,9.16096780297359
43,3.8744913313760456
44,-1349.3619207451725
45,1.4440849105179943
46,2.344464408843503
47,-191.81028301302626
48,0.0
49,17.898755849468163
50,8.860929412668478
51,3.256957414575842
52,-1253.542570481212
53,1.4416170860349815
54,2.340753428186984
55,-205.8395370872347
56,0.0
57,19.42487061866055
58,19.491606099929644
59,18.101525730583013
60,-0.15489727097777167
61,3.390236296349641
62,-11258.268590390559
63,3.8723825846364233
64,0.0
65,0.0
66,0.0
67,14.913046043987208
68,11.359654876109687
69,2.3233639158196016
70,-270.44515533240195
71,1.3650036091559854
72,2.214071293969543
73,11.531879561541407
74,18.540055405568705
75,0.0
76,-80.70058345910695
77,0.0
78,-81.95598431711552
2,1,10, 1, 0, 5,15.00,30.00,Sunday
7,13.25
8,-12.423423039347256
9,0.0
10,0.0
11,19.21
12,0.0
13,0.0
14,0.0
15,0.0
16,0.0
17,0.0
18,0.0
19,0.0
20,0.0
21,0.0
22,0.0
23,0.0
24,-244.72195966423922
25,17.869712792449008
26,8.954391230164674
27,3.2549483974125133
28,-1051.798576404718
29,1.444331179024301
30,2.3428586492122854
31,-173.30399605416557
32,0.0
33,17.869815921959045
34,9.252486065347899
35,3.873157790794334
36,-1340.3147838529173
37,1.446780865344866
38,2.3465407473186226
39,-191.18912678937727
40,0.0
41,17.86981592195903
42,9.25248606534789
43,3.873157790794334
44,-1340.3147838529148
45,1.446780865344866
46,2.3465407473186226
47,-191.1891267893777
48,0.0
49,17.85205514501767
50,8.95347902665429
51,3.2550393823823267
52,-1244.734971917289
53,1.4443236192606699
54,2.3428472858994995
55,-205.18456850117013
56,0.0
57,19.358989882618346
58,19.42487061866055
59,18.05032950792355
60,-0.009369014045992401
61,3.3888250524621277
62,-11190.000540795367
63,3.8810259126814666
64,0.0
65,0.0
66,0.0
67,14.908634371844471
68,11.410196048212583
69,2.3275329057186225
70,-267.5847979452967
71,1.3672377465891388
72,2.215574196827021
73,11.694968744450785
74,18.484300702744125
75,0.0
76,-78.50745154547627
77,0.0
78,-79.76861734878774
2,1,10, 1, 0, 5,30.00,45.00,Sunday
7,13.325000000000001
8,-12.174993432191059
9,0.0
10,0.0
11,19.21
12,0.0
13,0.0
14,0.0
15,0.0
16,0.0
17,0.0
18,0.0
19,0.0
20,0.0
21,0.0
22,0.0
23,0.0
24,-240.9491013478174
25,17.82395533697612
26,9.04714700782744
27,3.253219617906247
28,-1044.4139581284762
29,1.4470198499533933
30,2.3449297398807003
31,-172.73936286562963
32,0.0
33,17.82424839331059
34,9.344144818570157
35,3.871924882411995
36,-1331.3164040453403
37,1.4494637315596717
38,2.3486015189760043
39,-190.55857382471712
40,0.0
41,17.824248393310558
42,9.344144818570168
43,3.871924882411995
44,-1331.3164040453437
45,1.4494637315596717
46,2.3486015189760043
47,-190.5585738247166
48,0.0