Program Version,EnergyPlus, Version 23.2.0-7636e6b3e9, YMD=2026.07.22 10:24
1,5,Environment Title[],Latitude[deg],Longitude[deg],Time Zone[],Elevation[m]
2,8,Day of Simulation[],Month[],Day of Month[],DST Indicator[1=yes 0=no],Hour[],StartMinute[],EndMinute[],DayType
3,5,Cumulative Day of Simulation[],Month[],Day of Month[],DST Indicator[1=yes 0=no],DayType  ! When Daily Meters Requested
4,2,Cumulative Days of Simulation[],Month[]  ! When Monthly Meters Requested
5,1,Cumulative Days of Simulation[] ! When Run Period Meters Requested
6,1,Calendar Year of Simulation[] ! When Annual Meters Requested
101,1,EnergyTransfer:Building [J] !Hourly
89,1,EnergyTransfer:Facility [J] !Hourly
End of Data Dictionary
1,RUN PERIOD 1,  55.95,  -3.37,   0.00,  41.10
2,1,10, 1, 0, 1, 0.00,60.00,Sunday
89,0.0
101,0.0
2,1,10, 1, 0, 2, 0.00,60.00,Sunday
89,0.0
101,0.0
2,1,10, 1, 0, 3, 0.00,60.00,Sunday
89,0.0
101,0.0
2,1,10, 1, 0, 4, 0.00,60.00,Sunday
89,0.0
101,0.0
2,1,10, 1, 0, 5, 0.00,60.00,Sunday
89,0.0
101,0.0
2,1,10, 1, 0, 6, 0.00,60.00,Sunday
89,0.0
101,0.0
2,1,10, 1, 0, 7, 0.00,60.00,Sunday
89,0.0
101,0.0
2,1,10, 1, 0, 8, 0.00,60.00,Sunday
89,0.0
101,0.0
2,1,10, 1, 0, 9, 0.00,60.00,Sunday
89,0.0
101,0.0
2,1,10, 1, 0,10, 0.00,60.00,Sunday
89,0.0
101,0.0
2,1,10, 1, 0,11, 0.00,60.00,Sunday
89,0.0
101,0.0
2,1,10, 1, 0,12, 0.00,60.00,Sunday
89,0.0
101,0.0
2,1,10, 1, 0,13, 0.00,60.00,Sunday
89,0.0
101,0.0
2,1,10, 1, 0,14, 0.00,60.00,Sunday
89,0.0
101,0.0
2,1,10, 1, 0,15, 0.00,60.00,Sunday
89,0.0
101,0.0
2,1,10, 1, 0,16, 0.00,60.00,Sunday
89,0.0
101,0.0
2,1,10, 1, 0,17, 0.00,60.00,Sunday
89,0.0
101,0.0
2,1,10, 1, 0,18, 0.00,60.00,Sunday
89,0.0
101,0.0
2,1,10, 1, 0,19, 0.00,60.00,Sunday
89,0.0
101,0.0
2,1,10, 1, 0,20, 0.00,60.00,Sunday
89,0.0
101,0.0
2,1,10, 1, 0,21, 0.00,60.00,Sunday
89,0.0
101,0.0
2,1,10, 1, 0,22, 0.00,60.00,Sunday
89,0.0
101,0.0
2,1,10, 1, 0,23, 0.00,60.00,Sunday
89,0.0
101,0.0
2,1,10, 1, 0,24, 0.00,60.00,Sunday
89,0.0
101,0.0
2,2,10, 2, 0, 1, 0.00,60.00,Monday
89,0.0
101,0.0
2,2,10, 2, 0, 2, 0.00,60.00,Monday
89,0.0
101,0.0
2,2,10, 2, 0, 3, 0.00,60.00,Monday
89,0.0
101,0.0
2,2,10, 2, 0, 4, 0.00,60.00,Monday
89,0.0
101,0.0
2,2,10, 2, 0, 5, 0.00,60.00,Monday
89,0.0
101,0.0
2,2,10, 2, 0, 6, 0.00,60.00,Monday
89,0.0
101,0.0
2,2,10, 2, 0, 7, 0.00,60.00,Monday
89,0.0
101,0.0
2,2,10, 2, 0, 8, 0.00,60.00,Monday
89,0.0
101,0.0
2,2,10, 2, 0, 9, 0.00,60.00,Monday
89,0.0
101,0.0
2,2,10, 2, 0,10, 0.00,60.00,Monday
89,0.0
101,0.0
2,2,10, 2, 0,11, 0.00,60.00,Monday
89,0.0
101,0.0
2,2,10, 2, 0,12, 0.00,60.00,Monday
89,0.0
101,0.0
2,2,10, 2, 0,13, 0.00,60.00,Monday
89,0.0
101,0.0
2,2,10, 2, 0,14, 0.00,60.00,Monday
89,0.0
101,0.0
2,2,10, 2, 0,15, 0.00,60.00,Monday
89,0.0
101,0.0
2,2,10, 2, 0,16, 0.00,60.00,Monday
89,0.0
101,0.0
2,2,10, 2, 0,17, 0.00,60.00,Monday
89,0.0
101,0.0
2,2,10, 2, 0,18, 0.00,60.00,Monday
89,0.0
101,0.0
2,2,10, 2, 0,19, 0.00,60.00,Monday
89,0.0
101,0.0
2,2,10, 2, 0,20, 0.00,60.00,Monday
89,0.0
101,0.0
2,2,10, 2, 0,21, 0.00,60.00,Monday
89,0.0
101,0.0
2,2,10, 2, 0,22, 0.00,60.00,Monday
89,0.0
101,0.0
2,2,10, 2, 0,23, 0.00,60.00,Monday
89,0.0
101,0.0
2,2,10, 2, 0,24, 0.00,60.00,Monday
89,0.0
101,0.0
2,3,10, 3, 0, 1, 0.00,60.00,Tuesday
89,0.0
101,0.0
2,3,10, 3, 0, 2, 0.00,60.00,Tuesday
89,0.0
101,0.0
2,3,10, 3, 0, 3, 0.00,60.00,Tuesday
89,0.0
101,0.0
2,3,10, 3, 0, 4, 0.00,60.00,Tuesday
89,0.0
101,0.0
2,3,10, 3, 0, 5, 0.00,60.00,Tuesday
89,0.0
101,0.0
2,3,10, 3, 0, 6, 0.00,60.00,Tuesday
89,0.0
101,0.0
2,3,10, 3, 0, 7, 0.00,60.00,Tuesday
89,0.0
101,0.0
2,3,10, 3, 0, 8, 0.00,60.00,Tuesday
89,0.0
101,0.0
2,3,10, 3, 0, 9, 0.00,60.00,Tuesday
89,0.0
101,0.0
2,3,10, 3, 0,10, 0.00,60.00,Tuesday
89,0.0
101,0.0
2,3,10, 3, 0,11, 0.00,60.00,Tuesday
89,0.0
101,0.0
2,3,10, 3, 0,12, 0.00,60.00,Tuesday
89,0.0
101,0.0
2,3,10, 3, 0,13, 0.00,60.00,Tuesday
89,0.0
101,0.0
2,3,10, 3, 0,14, 0.00,60.00,Tuesday
89,0.0
101,0.0
2,3,10, 3, 0,15, 0.00,60.00,Tuesday
89,0.0
101,0.0
2,3,10, 3, 0,16, 0.00,60.00,Tuesday
89,0.0
101,0.0
2,3,10, 3, 0,17, 0.00,60.00,Tuesday
89,0.0
101,0.0
2,3,10, 3, 0,18, 0.00,60.00,Tuesday
89,0.0
101,0.0
2,3,10, 3, 0,19, 0.00,60.00,Tuesday
89,0.0
101,0.0
2,3,10, 3, 0,20, 0.00,60.00,Tuesday
89,0.0
101,0.0
2,3,10, 3, 0,21, 0.00,60.00,Tuesday
89,0.0
101,0.0
2,3,10, 3, 0,22, 0.00,60.00,Tuesday
89,0.0
101,0.0
2,3,10, 3, 0,23, 0.00,60.00,Tuesday
89,0.0
101,0.0
2,3,10, 3, 0,24, 0.00,60.00,Tuesday
89,0.0
101,0.0
2,4,10, 4, 0, 1, 0.00,60.00,Wednesday
89,0.0
101,0.0
2,4,10, 4, 0, 2, 0.00,60.00,Wednesday
89,0.0
101,0.0
2,4,10, 4, 0, 3, 0.00,60.00,Wednesday
89,0.0
101,0.0
2,4,10, 4, 0, 4, 0.00,60.00,Wednesday
89,0.0
101,0.0
2,4,10, 4, 0, 5, 0.00,60.00,Wednesday
89,0.0
101,0.0
2,4,10, 4, 0, 6, 0.00,60.00,Wednesday
89,0.0
101,0.0
2,4,10, 4, 0, 7, 0.00,60.00,Wednesday
89,0.0
101,0.0
2,4,10, 4, 0, 8, 0.00,60.00,Wednesday
89,0.0
101,0.0
2,4,10, 4, 0, 9, 0.00,60.00,Wednesday
89,0.0
101,0.0
2,4,10, 4, 0,10, 0.00,60.00,Wednesday
89,0.0
101,0.0
2,4,10, 4, 0,11, 0.00,60.00,Wednesday
89,0.0
101,0.0
2,4,10, 4, 0,12, 0.00,60.00,Wednesday
89,0.0
101,0.0
2,4,10, 4, 0,13, 0.00,60.00,Wednesday
89,0.0
101,0.0
2,4,10, 4, 0,14, 0.00,60.00,Wednesday
89,0.0
101,0.0
2,4,10, 4, 0,15, 0.00,60.00,Wednesday
89,0.0
101,0.0
2,4,10, 4, 0,16, 0.00,60.00,Wednesday
89,0.0
101,0.0
2,4,10, 4, 0,17, 0.00,60.00,Wednesday
89,0.0
101,0.0
2,4,10, 4, 0,18, 0.00,60.00,Wednesday
89,0.0
101,0.0
2,4,10, 4, 0,19, 0.00,60.00,Wednesday
89,0.0
101,0.0
2,4,10, 4, 0,20, 0.00,60.00,Wednesday
89,0.0
101,0.0
2,4,10, 4, 0,21, 0.00,60.00,Wednesday
89,0.0
101,0.0
2,4,10, 4, 0,22, 0.00,60.00,Wednesday
89,0.0
101,0.0
2,4,10, 4, 0,23, 0.00,60.00,Wednesday
89,0.0
101,0.0
2,4,10, 4, 0,24, 0.00,60.00,Wednesday
89,0.0
101,0.0
2,5,10, 5, 0, 1, 0.00,60.00,Thursday
89,0.0
101,0.0
2,5,10, 5, 0, 2, 0.00,60.00,Thursday
89,0.0
101,0.0
2,5,10, 5, 0, 3, 0.00,60.00,Thursday
89,0.0
101,0.0
2,5,10, 5, 0, 4, 0.00,60.00,Thursday
89,0.0
101,0.0
2,5,10, 5, 0, 5, 0.00,60.00,Thursday
89,0.0
101,0.0
2,5,10, 5, 0, 6, 0.00,60.00,Thursday
89,0.0
101,0.0
2,5,10, 5, 0, 7, 0.00,60.00,Thursday
89,0.0
101,0.0
2,5,10, 5, 0, 8, 0.00,60.00,Thursday
89,0.0
101,0.0
2,5,10, 5, 0, 9, 0.00,60.00,Thursday
89,0.0
101,0.0
2,5,10, 5, 0,10, 0.00,60.00,Thursday
89,0.0
101,0.0
2,5,10, 5, 0,11, 0.00,60.00,Thursday
89,0.0
101,0.0
2,5,10, 5, 0,12, 0.00,60.00,Thursday
89,0.0
101,0.0
2,5,10, 5, 0,13, 0.00,60.00,Thursday
89,0.0
101,0.0
2,5,10, 5, 0,14, 0.00,60.00,Thursday
89,0.0
101,0.0
2,5,10, 5, 0,15, 0.00,60.00,Thursday
89,0.0
101,0.0
2,5,10, 5, 0,16, 0.00,60.00,Thursday
89,0.0
101,0.0
2,5,10, 5, 0,17, 0.00,60.00,Thursday
89,0.0
101,0.0
2,5,10, 5, 0,18, 0.00,60.00,Thursday
89,0.0
101,0.0
2,5,10, 5, 0,19, 0.00,60.00,Thursday
89,0.0
101,0.0
2,5,10, 5, 0,20, 0.00,60.00,Thursday
89,0.0
101,0.0
2,5,10, 5, 0,21, 0.00,60.00,Thursday
89,0.0
101,0.0
2,5,10, 5, 0,22, 0.00,60.00,Thursday
89,0.0
101,0.0
2,5,10, 5, 0,23, 0.00,60.00,Thursday
89,0.0
101,0.0
2,5,10, 5, 0,24, 0.00,60.00,Thursday
89,0.0
101,0.0
End of Data
 Number of Records Written=         240
