Program Version,EnergyPlus, Version 23.2.0-7636e6b3e9, YMD=2026.07.22 10:24
1,5,Environment Title[],Latitude[deg],Longitude[deg],Time Zone[],Elevation[m]
2,8,Day of Simulation[],Month[],Day of Month[],DST Indicator[1=yes 0=no],Hour[],StartMinute[],EndMinute[],DayType
3,5,Cumulative Day of Simulation[],Month[],Day of Month[],DST Indicator[1=yes 0=no],DayType  ! When Daily Report Variables Requested
4,2,Cumulative Days of Simulation[],Month[]  ! When Monthly Report Variables Requested
5,1,Cumulative Days of Simulation[] ! When Run Period Report Variables Requested
6,1,Calendar Year of Simulation[] ! When Annual Report Variables Requested
7,1,Environment,Site Outdoor Air Drybulb Temperature [C] !TimeStep
8,1,Environment,Site Sky Temperature [C] !TimeStep
9,1,Environment,Site Diffuse Solar Radiation Rate per Area [W/m2] !TimeStep
10,1,Environment,Site Direct Solar Radiation Rate per Area [W/m2] !TimeStep
11,1,Environment,Site Ground Temperature [C] !TimeStep
12,1,ZONE ONE,Zone Total Internal Radiant Heating Rate [W] !TimeStep
13,1,ZONE ONE,Zone Total Internal Convective Heating Rate [W] !TimeStep
14,1,ZONE ONE,Zone Windows Total Transmitted Solar Radiation Rate [W] !TimeStep
15,1,ZN001:WALL001,Surface Outside Face Sunlit Fraction [] !TimeStep
16,1,ZN001:WALL001,Surface Outside Face Incident Solar Radiation Rate per Area [W/m2] !TimeStep
17,1,ZN001:WALL002,Surface Outside Face Incident Solar Radiation Rate per Area [W/m2] !TimeStep
18,1,ZN001:WALL003,Surface Outside Face Incident Solar Radiation Rate per Area [W/m2] !TimeStep
19,1,ZN001:WALL004,Surface Outside Face Incident Solar Radiation Rate per Area [W/m2] !TimeStep
20,1,ZN001:ROOF001,Surface Outside Face Incident Solar Radiation Rate per Area [W/m2] !TimeStep
21,1,ZN001:WALL001:WIN001,Surface Outside Face Sunlit Fraction [] !TimeStep
22,1,ZN001:WALL001:WIN001,Surface Outside Face Incident Solar Radiation Rate per Area [W/m2] !TimeStep
23,1,ZN001:WALL001:WIN001,Surface Window Transmitted Solar Radiation Rate [W] !TimeStep
24,1,ZN001:WALL001:WIN001,Surface Window Net Heat Transfer Rate [W] !TimeStep
25,1,ZN001:WALL001,Surface Inside Face Temperature [C] !TimeStep
26,1,ZN001:WALL001,Surface Outside Face Temperature [C] !TimeStep
27,1,ZN001:WALL001,Surface Outside Face Outdoor Air Drybulb Temperature [C] !TimeStep
28,1,ZN001:WALL001,Surface Outside Face Convection Heat Transfer Coefficient [W/m2-K] !TimeStep
29,1,ZN001:WALL001,Surface Outside Face Net Thermal Radiation Heat Gain Rate [W] !TimeStep
30,1,ZN001:WALL001,Surface Outside Face Thermal Radiation to Sky Heat Transfer Coefficient [W/m2-K] !TimeStep
31,1,ZN001:WALL001,Surface Outside Face Thermal Radiation to Ground Heat Transfer Coefficient [W/m2-K] !TimeStep
32,1,ZN001:WALL001,Surface Outside Face Thermal Radiation to Air Heat Transfer Rate [W] !TimeStep
33,1,ZN001:WALL001,Surface Outside Face Solar Radiation Heat Gain Rate [W] !TimeStep
34,1,ZN001:WALL002,Surface Inside Face Temperature [C] !TimeStep
35,1,ZN001:WALL002,Surface Outside Face Temperature [C] !TimeStep
36,1,ZN001:WALL002,Surface Outside Face Outdoor Air Drybulb Temperature [C] !TimeStep
37,1,ZN001:WALL002,Surface Outside Face Convection Heat Transfer Coefficient [W/m2-K] !TimeStep
38,1,ZN001:WALL002,Surface Outside Face Net Thermal Radiation Heat Gain Rate [W] !TimeStep
39,1,ZN001:WALL002,Surface Outside Face Thermal Radiation to Sky Heat Transfer Coefficient [W/m2-K] !TimeStep
40,1,ZN001:WALL002,Surface Outside Face Thermal Radiation to Ground Heat Transfer Coefficient [W/m2-K] !TimeStep
41,1,ZN001:WALL002,Surface Outside Face Thermal Radiation to Air Heat Transfer Rate [W] !TimeStep
42,1,ZN001:WALL002,Surface Outside Face Solar Radiation Heat Gain Rate [W] !TimeStep
43,1,ZN001:WALL003,Surface Inside Face Temperature [C] !TimeStep
44,1,ZN001:WALL003,Surface Outside Face Temperature [C] !TimeStep
45,1,ZN001:WALL003,Surface Outside Face Outdoor Air Drybulb Temperature [C] !TimeStep
46,1,ZN001:WALL003,Surface Outside Face Convection Heat Transfer Coefficient [W/m2-K] !TimeStep
47,1,ZN001:WALL003,Surface Outside Face Net Thermal Radiation Heat Gain Rate [W] !TimeStep
48,1,ZN001:WALL003,Surface Outside Face Thermal Radiation to Sky Heat Transfer Coefficient [W/m2-K] !TimeStep
49,1,ZN001:WALL003,Surface Outside Face Thermal Radiation to Ground Heat Transfer Coefficient [W/m2-K] !TimeStep
50,1,ZN001:WALL003,Surface Outside Face Thermal Radiation to Air Heat Transfer Rate [W] !TimeStep
51,1,ZN001:WALL003,Surface Outside Face Solar Radiation Heat Gain Rate [W] !TimeStep
52,1,ZN001:WALL004,Surface Inside Face Temperature [C] !TimeStep
53,1,ZN001:WALL004,Surface Outside Face Temperature [C] !TimeStep
54,1,ZN001:WALL004,Surface Outside Face Outdoor Air Drybulb Temperature [C] !TimeStep
55,1,ZN001:WALL004,Surface Outside Face Convection Heat Transfer Coefficient [W/m2-K] !TimeStep
56,1,ZN001:WALL004,Surface Outside Face Net Thermal Radiation Heat Gain Rate [W] !TimeStep
57,1,ZN001:WALL004,Surface Outside Face Thermal Radiation to Sky Heat Transfer Coefficient [W/m2-K] !TimeStep
58,1,ZN001:WALL004,Surface Outside Face Thermal Radiation to Ground Heat Transfer Coefficient [W/m2-K] !TimeStep
59,1,ZN001:WALL004,Surface Outside Face Thermal Radiation to Air Heat Transfer Rate [W] !TimeStep
60,1,ZN001:WALL004,Surface Outside Face Solar Radiation Heat Gain Rate [W] !TimeStep
61,1,ZN001:FLR001,Surface Inside Face Temperature [C] !TimeStep
62,1,ZN001:FLR001,Surface Outside Face Temperature [C] !TimeStep
63,1,ZN001:ROOF001,Surface Inside Face Temperature [C] !TimeStep
64,1,ZN001:ROOF001,Surface Outside Face Temperature [C] !TimeStep
65,1,ZN001:ROOF001,Surface Outside Face Outdoor Air Drybulb Temperature [C] !TimeStep
66,1,ZN001:ROOF001,Surface Outside Face Convection Heat Transfer Coefficient [W/m2-K] !TimeStep
67,1,ZN001:ROOF001,Surface Outside Face Net Thermal Radiation Heat Gain Rate [W] !TimeStep
68,1,ZN001:ROOF001,Surface Outside Face Thermal Radiation to Sky Heat Transfer Coefficient [W/m2-K] !TimeStep
69,1,ZN001:ROOF001,Surface Outside Face Thermal Radiation to Ground Heat Transfer Coefficient [W/m2-K] !TimeStep
70,1,ZN001:ROOF001,Surface Outside Face Thermal Radiation to Air Heat Transfer Rate [W] !TimeStep
71,1,ZN001:ROOF001,Surface Outside Face Solar Radiation Heat Gain Rate [W] !TimeStep
72,1,ZN001:WALL001:WIN001,Surface Inside Face Temperature [C] !TimeStep
73,1,ZN001:WALL001:WIN001,Surface Outside Face Temperature [C] !TimeStep
74,1,ZN001:WALL001:WIN001,Surface Outside Face Outdoor Air Drybulb Temperature [C] !TimeStep
75,1,ZN001:WALL001:WIN001,Surface Outside Face Convection Heat Transfer Coefficient [W/m2-K] !TimeStep
76,1,ZN001:WALL001:WIN001,Surface Outside Face Net Thermal Radiation Heat Gain Rate [W] !TimeStep
77,1,ZN001:WALL001:WIN001,Surface Outside Face Thermal Radiation to Sky Heat Transfer Coefficient [W/m2-K] !TimeStep
78,1,ZN001:WALL001:WIN001,Surface Outside Face Thermal Radiation to Ground Heat Transfer Coefficient [W/m2-K] !TimeStep
79,1,ZN001:WALL001:WIN001,Surface Outside Face Thermal Radiation to Air Heat Transfer Rate [W] !TimeStep
80,1,ZONE ONE,Zone Mean Air Temperature [C] !TimeStep
81,1,ZONE ONE,Zone Air Heat Balance Internal Convective Heat Gain Rate [W] !TimeStep
82,1,ZONE ONE,Zone Air Heat Balance Surface Convection Rate [W] !TimeStep
83,1,ZONE ONE,Zone Air Heat Balance Interzone Air Transfer Rate [W] !TimeStep
84,1,ZONE ONE,Zone Air Heat Balance Outdoor Air Transfer Rate [W] !TimeStep
85,1,ZONE ONE,Zone Air Heat Balance System Air Transfer Rate [W] !TimeStep
86,1,ZONE ONE,Zone Air Heat Balance Air Energy Storage Rate [W] !TimeStep
End of Data Dictionary
1,RUN PERIOD 1,  55.95,  -3.37,   0.00,  41.10
2,1,10, 1, 0, 1, 0.00,15.00,Sunday
7,11.325
8,-11.065747629531984
9,0.0
10,0.0
11,19.21
12,0.0
13,0.0
14,0.0
15,0.0
16,0.0
17,0.0
18,0.0
19,0.0
20,0.0
21,0.0
22,0.0
23,0.0
24,-302.5264875277305
25,18.963464605503656
26,8.538137658748859
27,11.319891003043212
28,5.609540416550655
29,-1186.1100414003579
30,1.4535484262431306
31,2.3170083024916583
32,-111.12219592643363
33,0.0
34,18.94656852597894
35,8.610163065357606
36,11.319891003043212
37,5.889249487581716
38,-1426.3824413033146
39,1.4535899757845052
40,2.3170702739251894
41,-128.13429984829165
42,0.0
43,18.94660223871789
44,8.610302825663835
45,11.319891003043212
46,5.889302850960183
47,-1426.377150930151
48,1.453541665429425
49,2.316998218685703
50,-128.12370657492158
51,0.0
52,18.94208217249931
53,8.537255009361974
54,11.319891003043212
55,5.60955341952296
56,-1403.7318699082984
57,1.453541665429425
58,2.316998218685703
59,-131.57779493415345
60,0.0
61,20.581292755472834
62,20.653000342681494
63,19.266640211044617
64,3.015867740042568
65,11.305032019075771
66,6.436203854638223
67,-13079.511541901933
68,3.999163074303083
69,0.0
70,0.0
71,0.0
72,15.345548082482878
73,11.024843428540521
74,11.325
75,3.4843624852942146
76,-289.04764873777845
77,1.374587659395771
78,2.189356482299453
79,1.8848997587814398
80,19.671126303627744
81,0.0
82,-110.70684705192718
83,0.0
84,0.0
85,0.0
86,-107.98487964651808
2,1,10, 1, 0, 1,15.00,30.00,Sunday
7,11.45
8,-11.433930583453161
9,0.0
10,0.0
11,19.21
12,0.0
13,0.0
14,0.0
15,0.0
16,0.0
17,0.0
18,0.0
19,0.0
20,0.0
21,0.0
22,0.0
23,0.0
24,-299.97264883458166
25,18.869285159899437
26,8.335812622031035
27,11.444891003043212
28,4.740725275376135
29,-1137.82608258878
30,1.449381957161188
31,2.3166193468594907
32,-124.17694070179216
33,0.0
34,18.857172444053344
35,8.484202222903221
36,11.444891003043212
37,5.225377959959676
38,-1393.3950901910139
39,1.4499719688844717
40,2.317500406862845
41,-140.02741854309102
42,0.0
43,18.85716983208978
44,8.484194053497522
45,11.444891003043212
46,5.225374020744383
47,-1393.3936918004983
48,1.449973113962714
49,2.3175021167894014
50,-140.02790823669767
51,0.0
52,18.84821322063065
53,8.334874723796473
54,11.444891003043212
55,4.74076308011107
56,-1346.5605397012953
57,1.449374728032523
58,2.31660855159277
59,-147.0333401058685
60,0.0
61,20.508269558983798
62,20.581292755472834
63,19.16128682650631
64,2.0384734816945054
65,11.430032019075771
66,5.367375818377779
67,-12432.595970387823
68,3.9732581839226184
69,0.0
70,0.0
71,0.0
72,15.29654772161797
73,11.010932862461459
74,11.45
75,2.9878343220583963
76,-289.3419315037862
77,1.371881017732049
78,2.190790029879604
79,2.7588365791095275
80,19.59039085509644
81,0.0
82,-119.50768511271329
83,0.0
84,0.0
85,0.0
86,-115.0745780153808
2,1,10, 1, 0, 1,30.00,45.00,Sunday
7,11.575
8,-11.80367401104263
9,0.0
10,0.0
11,19.21
12,0.0
13,0.0
14,0.0
15,0.0
16,0.0
17,0.0
18,0.0
19,0.0
20,0.0
21,0.0
22,0.0
23,0.0
24,-297.74796410983544
25,18.76456302759746
26,8.086419555622085
27,11.569891003043212
28,3.917219340280401
29,-1077.0243626314916
30,1.4448462591902955
31,2.315685019716143
32,-139.07412863848646
33,0.0
34,18.757382692985818
35,8.313710722892454
36,11.569891003043212
37,4.535022563395151
38,-1346.3514763632256
39,1.4460597770598005
40,2.3174993465769638
41,-154.00278252612728
42,0.0
43,18.757382901413774
44,8.313711413099359
45,11.569891003043212
46,4.535022975423686
47,-1346.3516256673051
48,1.4460597102268862
49,2.3174992466565296
50,-154.00274324249875
51,0.0
52,18.743827111947752
53,8.085426553043021
54,11.569891003043212
55,3.917287827435441
56,-1274.572078119118
57,1.4448385919305924
58,2.3156735562770834
59,-164.66977035739455
60,0.0
61,20.433253915063254
62,20.508269558983798
63,19.042935314927913
64,0.8141489561071875
65,11.555032019075771
66,4.323238463608247
67,-11556.0553248362
68,3.9432585038138552
69,0.0
70,0.0
71,0.0
72,15.237914608010101
73,10.982346357653341
74,11.575
75,2.501664667273563
76,-289.0036388075442
77,1.3690678038634791
78,2.192074883824423
79,3.725778673872435
80,19.503055440567966
81,0.0
82,-129.96396061228603
83,0.0
84,0.0
85,0.0
86,-124.51607078203017
2,1,10, 1, 0, 1,45.00,60.00,Sunday
7,11.7
8,-12.174993432191059
9,0.0
10,0.0
11,19.21
12,0.0
13,0.0
14,0.0
15,0.0
16,0.0
17,0.0
18,0.0
19,0.0
20,0.0
21,0.0
22,0.0
23,0.0
24,-295.8022760718859
25,18.650776250803123
26,7.799833641322852
27,11.694891003043212
28,3.175990874764718
29,-1006.3556884313098
30,1.4399241345738643
31,2.314177648540891
32,-155.40506119643248
33,0.0
34,18.647252579956326
35,8.08603594472516
36,11.694891003043212
37,3.8198772493934534
38,-1281.330344322258
39,1.4417793471310159
40,2.316954758982911
41,-170.64261558650517
42,0.0
43,18.647252562217837
44,8.086035875147115
45,11.694891003043212
46,3.8198771962617175
47,-1281.3303280214357
48,1.441779352767802
49,2.3169547674205737
50,-170.64261949789247
51,0.0
52,18.63035833923116
53,7.79878743875572
54,11.694891003043212
55,3.176095710381949
56,-1190.9048061899205
57,1.4399160339344013
58,2.314165522271251
59,-184.00321743964875
60,0.0
61,20.35593021883875
62,20.433253915063254
63,18.91162309628872
64,-0.6897903980317404
65,11.680032019075771
66,3.340030350870423
67,-10424.382759565291
68,3.90788467003073
69,0.0
70,0.0
71,0.0
72,15.167771465603437
73,10.937800392016982
74,11.7
75,2.042041620811613
76,-287.9784342623754
77,1.366134871329332
78,2.193190929198873
79,4.7936837448936895
80,19.408019522965446
81,0.0
82,-141.50410422939095
83,0.0
84,0.0
85,0.0
86,-135.53584155711292
2,1,10, 1, 0, 2, 0.00,15.00,Sunday
7,11.849999999999998
8,-12.237034327235847
9,0.0
10,0.0
11,19.21
12,0.0
13,0.0
14,0.0
15,0.0
16,0.0
17,0.0
18,0.0
19,0.0
20,0.0
21,0.0
22,0.0
23,0.0
24,-290.95670315048
25,18.587066598830532
26,7.887833558909797
27,11.84489100304321
28,3.133505357041642
29,-1005.313680207714
30,1.4371067775309292
31,2.312527105358026
32,-157.766137471777
33,0.0
34,18.583198569777114
35,8.16975224726395
36,11.84489100304321
37,3.756059361728437
38,-1279.1205910496199
39,1.4394395584801682
40,2.316021011651439
41,-173.70676858323836
42,0.0
43,18.583198571267502
44,8.169752253793531
45,11.84489100304321
46,3.75605936724597
47,-1279.120592541608
48,1.4394395579126549
49,2.316021010801463
50,-173.70676821086522
51,0.0
52,18.56674139719494
53,7.886766509609112
54,11.84489100304321
55,3.1336158624255317
56,-1189.6649199816013
57,1.4370982561170504
58,2.312514342154848
59,-186.79893259089965
60,0.0
61,20.28086354518176
62,20.35593021883875
63,18.840376319941875
64,-0.7434040697571049
65,11.83003201907577
66,3.2552014078542566
67,-10339.434010036779
68,3.8731972040287643
69,0.0
70,0.0
71,0.0
72,15.12960036466285
73,10.968396670106301
74,11.849999999999998
75,2.040705241869777
76,-285.8300613909224
77,1.3653383331939193
78,2.19441274707832
79,5.549931810687741
80,19.31640019448902
81,0.0
82,-122.94237905017968
83,0.0
84,0.0
85,0.0
86,-130.70451603772494
2,1,10, 1, 0, 2,15.00,30.00,Sunday
7,12.0
8,-12.299119510850744
9,0.0
10,0.0
11,19.21
12,0.0
13,0.0
14,0.0
15,0.0
16,0.0
17,0.0
18,0.0
19,0.0
20,0.0
21,0.0
22,0.0
23,0.0
24,-286.7299024874517
25,18.514520199036255
26,7.948426046149312
27,11.994891003043213
28,3.0545377530833404
29,-999.336177940697
30,1.4373422990120843
31,2.3154493836857197
32,-161.5346449909264
33,0.0
34,18.511331352623102
35,8.235721798578078
36,11.994891003043213
37,3.668348796170965
38,-1273.7460392518299
39,1.4396407871569439
40,2.318893611949791
41,-177.8988759381771
42,0.0
43,18.51133135249408
44,8.235721797974167
45,11.994891003043213
46,3.6683487956310445
47,-1273.746039114261
48,1.4396407872102175
49,2.3188936120296093
50,-177.89887597288006
51,0.0
52,18.494471673116962
53,7.947366174217476
54,11.994891003043213
55,3.0546542862690917
56,-1182.5910822305386
57,1.4373336053554173
58,2.315436356134152
59,-191.25943796966456
60,0.0
61,20.20529889994344
62,20.28086354518176
63,18.759261289733672
64,-0.9034648756529292
65,11.980032019075772
66,3.144369072359704
67,-10244.636619574087
68,3.8706806885579224
69,0.0
70,0.0
71,0.0
72,15.10786862519251
73,11.006478174996232
74,12.0
75,2.016999970120057
76,-283.9958876213156
77,1.3651217220951117
78,2.196504127127471
79,6.260696078509146
80,19.23387320218174
81,0.0
82,-108.54902338301513
83,0.0
84,0.0
85,0.0
86,-117.7668742875676
2,1,10, 1, 0, 2,30.00,45.00,Sunday
7,12.150000000000002
8,-12.361249056876431
9,0.0
10,0.0
11,19.21
12,0.0
13,0.0
14,0.0
15,0.0
16,0.0
17,0.0
18,0.0
19,0.0
20,0.0
21,0.0
22,0.0
23,0.0
24,-282.5435849203916
25,18.44746423313558
26,8.011799457320084
27,12.144891003043215
28,2.9812004032727515
29,-993.8887168251804
30,1.4373543721678927
31,2.318039322528613
32,-165.17732552601478
33,0.0
34,18.444688709870583
35,8.30182900109879
36,12.144891003043215
37,3.5821289095804003
38,-1268.2443588832261
39,1.4396970750233895
40,2.3215515357211873
41,-182.07747651481566
42,0.0
43,18.444688709881962
44,8.301829001154976
45,12.144891003043215
46,3.5821289096323556
47,-1268.2443588960796
48,1.439697075018462
49,2.321551535713798
50,-182.07747651157413
51,0.0
52,18.427651740662814
53,8.010746109159092
54,12.144891003043215
55,2.981319560708235
56,-1176.1447041242204
57,1.4373457357171129
58,2.3180263743132055
59,-195.57105219899017
60,0.0
61,20.13010757676249
62,20.20529889994344
63,18.68336175804463
64,-1.0593828958898008
65,12.130032019075774
66,3.0385022860748454
67,-10147.549670820697
68,3.8658152220160744
69,0.0
70,0.0
71,0.0
72,15.08528425916927
73,11.043659591688538
74,12.150000000000002
75,1.9921398140069397
76,-282.11720702240103
77,1.3649626728284614
78,2.198683611917046
79,6.978508373364477
80,19.158742828725654
81,0.0
82,-102.74115336885113
83,0.0
84,0.0
85,0.0
86,-107.23964439333655
2,1,10, 1, 0, 2,45.00,60.00,Sunday
7,12.3
8,-12.423423039347256
9,0.0
10,0.0
11,19.21
12,0.0
13,0.0
14,0.0
15,0.0
16,0.0
17,0.0
18,0.0
19,0.0
20,0.0
21,0.0
22,0.0
23,0.0
24,-278.4972419120349
25,18.383336136850662
26,8.074934688360164
27,12.294891003043213
28,2.9104328156204176
29,-988.3643517917783
30,1.4373889122192873
31,2.320665299546441
32,-168.8398935822004
33,0.0
34,18.380905747135657
35,8.366318423503552
36,12.294891003043213
37,3.4960308430845597
38,-1262.2069596252343
39,1.43975430297878
40,2.3242132733597227
41,-186.34221935755102
42,0.0
43,18.380905747134655
44,8.36631842349825
45,12.294891003043213
46,3.4960308430795335
47,-1262.2069596240162
48,1.4397543029792397
49,2.324213273360406
50,-186.34221935785726
51,0.0
52,18.36376952001923
53,8.073889315155439
54,12.294891003043213
55,2.910554548816407
56,-1169.6077361663588
57,1.4373803275488735
58,2.3206524226180076
59,-199.90613839436884
60,0.0
61,20.055449161674435
62,20.13010757676249
63,18.610202292526754
64,-1.2193254578756276
65,12.280032019075772
66,2.935548759352705
67,-10047.351962189961
68,3.8610444316376733
69,0.0
70,0.0
71,0.0
72,15.065763958489129
73,11.08218623389314
74,12.3
75,1.9687457483740198
76,-280.29015251984373
77,1.3647964573206395
78,2.200854289489194
79,7.6892909121464195
80,19.087657268972315
81,0.0
82,-100.17442665565257
83,0.0
84,0.0
85,0.0
86,-101.49108830178245
2,1,10, 1, 0, 3, 0.00,15.00,Sunday
7,12.425
8,-12.485641532491798
9,0.0
10,0.0
11,19.21
12,0.0
13,0.0
14,0.0
15,0.0
16,0.0
17,0.0
18,0.0
19,0.0
20,0.0
21,0.0
22,0.0
23,0.0
24,-274.638374611016
25,18.32902433573696
26,8.18272997277058
27,12.419891003043213
28,2.957374253214059
29,-999.0024271000834
30,1.4374213201373067
31,2.3229814891491944
32,-169.69745327094483
33,0.0
34,18.32690667670756
35,8.47591100332852
36,12.419891003043213
37,3.5480153021770002
38,-1275.4503922108936
39,1.4397981418443293
40,2.326548154192134
41,-187.26096425240513
42,0.0
43,18.326906676707654
44,8.475911003329008
45,12.419891003043213
46,3.5480153021774656
47,-1275.450392211005
48,1.4397981418442858
49,2.3265481541920683
50,-187.26096425237665
51,0.0
52,18.309632910679326
53,8.181699013174805
54,12.419891003043213
55,2.9574921527663696
56,-1182.2043641107596
57,1.4374127991037355
58,2.3229687021312673
59,-200.92061109645675
60,0.0
61,19.982057002326904
62,20.055449161674435
63,18.55080981203396
64,-1.0752670229267731
65,12.405032019075772
66,2.9970168366573047
67,-10219.462515256699
68,3.8561882058800014
69,0.0
70,0.0
71,0.0
72,15.046623997717006
73,11.118563322160469
74,12.425
75,2.0180091542751093
76,-279.06728941950547
77,1.3646404084740622
78,2.202751738887591
79,8.255874806425581
80,19.020048317261896
81,0.0
82,-94.31600943928999
83,0.0
84,0.0
85,0.0
86,-96.5497624198863
2,1,10, 1, 0, 3,15.00,30.00,Sunday
7,12.55
8,-12.54790461073378
9,0.0
10,0.0
11,19.21
12,0.0
13,0.0
14,0.0
15,0.0
16,0.0
17,0.0
18,0.0
19,0.0
20,0.0
21,0.0
22,0.0
23,0.0
24,-270.89637965612945
25,18.275067096218407
26,8.287358300235107
27,12.544891003043213
28,2.9996744257550265
29,-1009.0789903134353
30,1.4378176674927095
31,2.3258459373452016
32,-170.7235931931062
33,0.0
34,18.273328248206084
35,8.58288465324925
36,12.544891003043213
37,3.5958058855121333
38,-1288.2245220649995
39,1.4402100631842318
40,2.329437499817807
41,-188.35048175230898
42,0.0
43,18.273328248206095
44,8.5828846532492
45,12.544891003043213
46,3.5958058855120907
47,-1288.2245220649882
48,1.4402100631842358
49,2.3294374998178125
50,-188.35048175231182
51,0.0
52,18.25588613662856
53,8.286342423311266
54,12.544891003043213
55,2.9997884111821627
56,-1194.1365119633244
57,1.437809260773246
58,2.325833316501375
59,-202.13461829870317
60,0.0
61,19.9094608077467
62,19.982057002326904
63,18.491215999437788
64,-0.9560357724981594
65,12.530032019075772
66,3.0516850338778685
67,-10386.96844760518
68,3.858028396678449
69,0.0
70,0.0
71,0.0
72,15.032456677737969
73,11.158131911616465
74,12.55
75,2.0667723364898603
76,-277.97724145993794
77,1.3644675461388867
78,2.2046254776337877
79,8.80337763357926
80,18.955655340262133
81,0.0
82,-89.78491322385764
83,0.0
84,0.0
85,0.0
86,-91.97742314569795
2,1,10, 1, 0, 3,30.00,45.00,Sunday
7,12.675
8,-12.610212348692698
9,0.0
10,0.0
11,19.21
12,0.0
13,0.0
14,0.0
15,0.0
16,0.0
17,0.0
18,0.0
19,0.0
20,0.0
21,0.0
22,0.0
23,0.0
24,-267.17168261677756
25,18.22316814055142
26,8.39287414386707
27,12.669891003043213
28,3.042804951859744
29,-1019.370603199444
30,1.438188184319292
31,2.3286739424354277
32,-171.7134254545831
33,0.0
34,18.221769859631234
35,8.690269443572813
36,12.669891003043213
37,3.6436444460545188
38,-1301.1100596302526
39,1.4406006047955988
40,2.3322971086496493
41,-189.4201405048096
42,0.0
43,18.221769859631227
44,8.690269443572816
45,12.669891003043213
46,3.643644446054524
47,-1301.1100596302547
48,1.4406006047955988
49,2.3322971086496467
50,-189.42014050480918
51,0.0
52,18.20419313298919
53,8.391873633455909
54,12.669891003043213
55,3.0429150069632622
56,-1206.323323774132
57,1.4381798975886644
58,2.3286614964276797
59,-203.30563282537025
60,0.0
61,19.837787421960368
62,19.9094608077467
63,18.43369693190736
64,-0.833609868590513
65,12.655032019075772
66,3.1074831015230435
67,-10556.038631931991
68,3.8593220542655895
69,0.0
70,0.0
71,0.0
72,15.019545916532877
73,11.198815304943878
74,12.675
75,2.1138154280412675
76,-276.93110269151305
77,1.3643191044407053
78,2.2065373735474103
79,9.344819691817374
80,18.89375254690011
81,0.0
82,-86.98761066408102
83,0.0
84,0.0
85,0.0
86,-88.43924501918413
2,1,10, 1, 0, 3,45.00,60.00,Sunday
7,12.8
8,-12.672564821184324
9,0.0
10,0.0
11,19.21
12,0.0
13,0.0
14,0.0
15,0.0
16,0.0
17,0.0
18,0.0
19,0.0
20,0.0
21,0.0
22,0.0
23,0.0
24,-263.4734467884355
25,18.172764387629393
26,8.498822591989585
27,12.794891003043213
28,3.086294531124741
29,-1029.7830225313182
30,1.438565927196312
31,2.3315151260082514
32,-172.68874450509028
33,0.0
34,18.171691538916615
35,8.797781509584913
36,12.794891003043213
37,3.691267993077865
38,-1314.0421604969802
39,1.4409945040861565
40,2.3351641088349187
41,-190.4863927654844
42,0.0
43,18.171691538916615
44,8.797781509584913
45,12.794891003043213
46,3.691267993077865
47,-1314.0421604969802
48,1.4409945040861565
49,2.3351641088349187
50,-190.4863927654844
51,0.0
52,18.153998379205063
53,8.497837562292421
54,12.794891003043213
55,3.0864007315819175
56,-1218.6531814646253
57,1.4385577628243789
58,2.331502858552846
59,-204.45946152656947
60,0.0
61,19.767061709194863
62,19.837787421960368
63,18.37765773559911
64,-0.7105120300212028
65,12.780032019075772
66,3.1637274553292403
67,-10726.058763636558
68,3.8606863778912333
69,0.0
70,0.0
71,0.0
72,15.008316186242894
73,11.240864049030051
74,12.8
75,2.159790272897765
76,-275.9396819186601
77,1.364179051950247
78,2.208463399409922
79,9.878618391851678
80,18.83363776964617
81,0.0
82,-84.94188313619523
83,0.0
84,0.0
85,0.0
86,-85.90242555751757
2,1,10, 1, 0, 4, 0.00,15.00,Sunday
7,12.875000000000002
8,-12.734962103221733
9,0.0
10,0.0
11,19.21
12,0.0
13,0.0
14,0.0
15,0.0
16,0.0
17,0.0
18,0.0
19,0.0
20,0.0
21,0.0
22,0.0
23,0.0
24,-260.6612727006936
25,18.119184801083264
26,8.563053463443284
27,12.869891003043215
28,3.124965472385618
29,-1038.3416388156454
30,1.4389471900576456
31,2.3337440536206357
32,-173.28713458525243
33,0.0
34,18.118377941707678
35,8.86349930600372
36,12.869891003043215
37,3.7347197597784505
38,-1324.7341311166772
39,1.4413894437276267
40,2.337414713114118
41,-191.11276071752806
42,0.0
43,18.118377941707678
44,8.86349930600372
45,12.869891003043215
46,3.7347197597784505
47,-1324.7341311166772
48,1.4413894437276267
49,2.337414713114118
50,-191.11276071752806
51,0.0
52,18.100578627644914
53,8.562087541418403
54,12.869891003043215
55,3.1250683794467644
56,-1228.7898760195742
57,1.4389391490514853
58,2.333731967815528
59,-205.16693084189507
60,0.0
61,19.697016178136572
62,19.767061709194863
63,18.320326157361194
64,-0.610777173537433
65,12.855032019075773
66,3.219404021432946
67,-10875.322767398244
68,3.8620658031855504
69,0.0
70,0.0
71,0.0
72,14.984609295673295
73,11.25349807090987
74,12.875000000000002
75,2.193763064442747
76,-275.0932583369198
77,1.3640493241736182
78,2.2098241976360504
79,10.278509274228998
80,18.774189884717533
81,0.0
82,-85.0071978741843
83,0.0
84,0.0
85,0.0
86,-84.96696401367554
2,1,10, 1, 0, 4,15.00,30.00,Sunday
7,12.95
8,-12.797404270015761
9,0.0
10,0.0
11,19.21
12,0.0
13,0.0
14,0.0
15,0.0
16,0.0
17,0.0
18,0.0
19,0.0
20,0.0
21,0.0
22,0.0
23,0.0
24,-257.86262027127367
25,18.067027367045654
26,8.631051085290268
27,12.944891003043212
28,3.1685289229149296
29,-1047.633005067292
30,1.4389878027038787
31,2.335462266695022
32,-173.69666739272736
33,0.0
34,18.06641392864346
35,8.931798659684015
36,12.944891003043212
37,3.781420509695045
38,-1335.9053148206717
39,1.4414426152603874
40,2.3391529629894743
41,-191.5747559947179
42,0.0
43,18.06641392864346
44,8.931798659684015
45,12.944891003043212
46,3.781420509695045
47,-1335.9053148206717
48,1.4414426152603874
49,2.3391529629894743
50,-191.5747559947179
51,0.0
52,18.048582022430917
53,8.63009747273211
54,12.944891003043212
55,3.1686278320682053
56,-1239.791922149726
57,1.4389799163824053
58,2.33545040965105
59,-205.65116516676912
60,0.0
61,19.627789099676175
62,19.697016178136572
63,18.264158205568936
64,-0.5087531954018056
65,12.930032019075771
66,3.276085727318243
67,-11025.314033496956
68,3.862929848103997
69,0.0
70,0.0
71,0.0
72,14.962029579682223
73,11.27017390435185
74,12.95
75,2.2340627240779103
76,-274.4187279621386
77,1.363692258113387
78,2.210844257374267
79,10.65336033210998
80,18.714905741976743
81,0.0
82,-84.85583935978364
83,0.0
84,0.0
85,0.0
86,-84.75035380718761
2,1,10, 1, 0, 4,30.00,45.00,Sunday
7,13.024999999999999
8,-12.859891396975797
9,0.0
10,0.0
11,19.21
12,0.0
13,0.0
14,0.0
15,0.0
16,0.0
17,0.0
18,0.0
19,0.0
20,0.0
21,0.0
22,0.0
23,0.0
24,-255.08571224265992
25,18.015259156199587
26,8.699036732432704
27,13.019891003043211
28,3.212151495899851
29,-1056.9471157442624
30,1.4390589835286929
31,2.337227585176551
32,-174.1106066753883
33,0.0
34,18.01483380195307
35,8.99991952503859
36,13.019891003043211
37,3.8277686901263537
38,-1347.04436705101
39,1.4415167116497145
40,2.3409238254485745
41,-192.04842910264773
42,0.0
43,18.01483380195307
44,8.99991952503859
45,13.019891003043211
46,3.8277686901263537
47,-1347.04436705101
48,1.4415167116497145
49,2.3409238254485745
50,-192.04842910264773
51,0.0
52,17.996974431274115
53,8.698095439659046
54,13.019891003043211
55,3.212247222327383
56,-1250.8208437310634
57,1.439051196287115
58,2.337215873419468
59,-206.14060773694067
60,0.0
61,19.559323579406968
62,19.627789099676175
63,18.208431514431304
64,-0.40651834893544136
65,13.00503201907577
66,3.3331982849033723
67,-11175.74670651641
68,3.863844307071834
69,0.0
70,0.0
71,0.0
72,14.939911570922106
73,11.287579946712526
74,13.024999999999999
75,2.2731840247852637
76,-273.77400658693017
77,1.3633661853809476
78,2.2119115905109
79,11.023979385860025
80,18.655881631890963
81,0.0
82,-84.1470789010863
83,0.0
84,0.0
85,0.0
86,-84.39589772454791
2,1,10, 1, 0, 4,45.00,60.00,Sunday
7,13.1
8,-12.922423559710637
9,0.0
10,0.0
11,19.21
12,0.0
13,0.0
14,0.0
15,0.0
16,0.0
17,0.0
18,0.0
19,0.0
20,0.0
21,0.0
22,0.0
23,0.0
24,-252.30835661783985
25,17.964046169172423
26,8.767368239859112
27,13.094891003043212
28,3.2562101195629647
29,-1066.3545136065798
30,1.4391298857186345
31,2.338993646371812
32,-174.51108123018875
33,0.0
34,17.96379047035522
35,9.068086773774363
36,13.094891003043212
37,3.8739818879878616
38,-1358.1995045478486
39,1.4415891679907702
40,2.342693385611081
41,-192.52027483327979
42,0.0
43,17.96379047035522
44,9.068086773774363
45,13.094891003043212
46,3.8739818879878616
47,-1358.1995045478486
48,1.4415891679907702
49,2.342693385611081
50,-192.52027483327979
51,0.0
52,17.94592153689251
53,8.766439208741218
54,13.094891003043212
55,3.2563027316116986
56,-1261.960177479301
57,1.4391221976788797
58,2.3389820801777894
59,-206.61411400138147
60,0.0
61,19.491606099940462
62,19.559323579406968
63,18.153271508782016
64,-0.3039431187901798
65,13.080032019075771
66,3.39076150169815
67,-11326.608689061324
68,3.8647633310525196
69,0.0
70,0.0
71,0.0
72,14.918309392051583
73,11.305581231939414
74,13.1
75,2.3118901995908843
76,-273.1533152058643
77,1.3630455343018177
78,2.212987789561604
79,11.391212821191509
80,18.59735007383796
81,0.0
82,-83.22886442932571
83,0.0
84,0.0
85,0.0
86,-83.70861805279172
2,1,10, 1, 0, 5, 0.00,15.00,Sunday
7,13.174999999999999
8,-12.672564821184324
9,0.0
10,0.0
11,19.21
12,0.0
13,0.0
14,0.0
15,0.0
16,0.0
17,0.0
18,0.0
19,0.0
20,0.0
21,0.0
22,0.0
23,0.0
24,-248.5130213814343
25,17.91664645499688
26,8.861853160226353
27,13.169891003043212
28,3.256866060626814
29,-1059.2420645522327
30,1.4416246810023432