Program Version,EnergyPlus, Version 23.2.0-7636e6b3e9, YMD=2026.07.22 13:32
1,5,Environment Title[],Latitude[deg],Longitude[deg],Time Zone[],Elevation[m]
2,8,Day of Simulation[],Month[],Day of Month[],DST Indicator[1=yes 0=no],Hour[],StartMinute[],EndMinute[],DayType
3,5,Cumulative Day of Simulation[],Month[],Day of Month[],DST Indicator[1=yes 0=no],DayType  ! When Daily Report Variables Requested
4,2,Cumulative Days of Simulation[],Month[]  ! When Monthly Report Variables Requested
5,1,Cumulative Days of Simulation[] ! When Run Period Report Variables Requested
6,1,Calendar Year of Simulation[] ! When Annual Report Variables Requested
7,1,Environment,Site Outdoor Air Drybulb Temperature [C] !TimeStep
8,1,Environment,Site Sky Temperature [C] !TimeStep
9,1,Environment,Site Diffuse Solar Radiation Rate per Area [W/m2] !TimeStep
10,1,Environment,Site Direct Solar Radiation Rate per Area [W/m2] !TimeStep
11,1,Environment,Site Ground Temperature [C] !TimeStep
12,1,ZONE ONE,Zone Total Internal Radiant Heating Rate [W] !TimeStep
13,1,ZONE ONE,Zone Total Internal Convective Heating Rate [W] !TimeStep
14,1,ZONE ONE,Zone Windows Total Transmitted Solar Radiation Rate [W] !TimeStep
15,1,ZN001:WALL001,Surface Outside Face Sunlit Fraction [] !TimeStep
16,1,ZN001:WALL001,Surface Outside Face Incident Solar Radiation Rate per Area [W/m2] !TimeStep
17,1,ZN001:WALL002,Surface Outside Face Incident Solar Radiation Rate per Area [W/m2] !TimeStep
18,1,ZN001:WALL003,Surface Outside Face Incident Solar Radiation Rate per Area [W/m2] !TimeStep
19,1,ZN001:WALL004,Surface Outside Face Incident Solar Radiation Rate per Area [W/m2] !TimeStep
20,1,ZN001:ROOF001,Surface Outside Face Incident Solar Radiation Rate per Area [W/m2] !TimeStep
21,1,ZN001:WALL001:WIN001,Surface Outside Face Sunlit Fraction [] !TimeStep
22,1,ZN001:WALL001:WIN001,Surface Outside Face Incident Solar Radiation Rate per Area [W/m2] !TimeStep
23,1,ZN001:WALL001:WIN001,Surface Window Transmitted Solar Radiation Rate [W] !TimeStep
24,1,ZN001:WALL001:WIN001,Surface Window Net Heat Transfer Rate [W] !TimeStep
25,1,ZN001:WALL001,Surface Inside Face Temperature [C] !TimeStep
26,1,ZN001:WALL001,Surface Outside Face Temperature [C] !TimeStep
27,1,ZN001:WALL001,Surface Outside Face Convection Heat Transfer Coefficient [W/m2-K] !TimeStep
28,1,ZN001:WALL001,Surface Outside Face Net Thermal Radiation Heat Gain Rate [W] !TimeStep
29,1,ZN001:WALL001,Surface Outside Face Thermal Radiation to Sky Heat Transfer Coefficient [W/m2-K] !TimeStep
30,1,ZN001:WALL001,Surface Outside Face Thermal Radiation to Ground Heat Transfer Coefficient [W/m2-K] !TimeStep
31,1,ZN001:WALL001,Surface Outside Face Thermal Radiation to Air Heat Transfer Rate [W] !TimeStep
32,1,ZN001:WALL001,Surface Outside Face Solar Radiation Heat Gain Rate [W] !TimeStep
33,1,ZN001:WALL002,Surface Inside Face Temperature [C] !TimeStep
34,1,ZN001:WALL002,Surface Outside Face Temperature [C] !TimeStep
35,1,ZN001:WALL002,Surface Outside Face Convection Heat Transfer Coefficient [W/m2-K] !TimeStep
36,1,ZN001:WALL002,Surface Outside Face Net Thermal Radiation Heat Gain Rate [W] !TimeStep
37,1,ZN001:WALL002,Surface Outside Face Thermal Radiation to Sky Heat Transfer Coefficient [W/m2-K] !TimeStep
38,1,ZN001:WALL002,Surface Outside Face Thermal Radiation to Ground Heat Transfer Coefficient [W/m2-K] !TimeStep
39,1,ZN001:WALL002,Surface Outside Face Thermal Radiation to Air Heat Transfer Rate [W] !TimeStep
40,1,ZN001:WALL002,Surface Outside Face Solar Radiation Heat Gain Rate [W] !TimeStep
41,1,ZN001:WALL003,Surface Inside Face Temperature [C] !TimeStep
42,1,ZN001:WALL003,Surface Outside Face Temperature [C] !TimeStep
43,1,ZN001:WALL003,Surface Outside Face Convection Heat Transfer Coefficient [W/m2-K] !TimeStep
44,1,ZN001:WALL003,Surface Outside Face Net Thermal Radiation Heat Gain Rate [W] !TimeStep
45,1,ZN001:WALL003,Surface Outside Face Thermal Radiation to Sky Heat Transfer Coefficient [W/m2-K] !TimeStep
46,1,ZN001:WALL003,Surface Outside Face Thermal Radiation to Ground Heat Transfer Coefficient [W/m2-K] !TimeStep
47,1,ZN001:WALL003,Surface Outside Face Thermal Radiation to Air Heat Transfer Rate [W] !TimeStep
48,1,ZN001:WALL003,Surface Outside Face Solar Radiation Heat Gain Rate [W] !TimeStep
49,1,ZN001:WALL004,Surface Inside Face Temperature [C] !TimeStep
50,1,ZN001:WALL004,Surface Outside Face Temperature [C] !TimeStep
51,1,ZN001:WALL004,Surface Outside Face Convection Heat Transfer Coefficient [W/m2-K] !TimeStep
52,1,ZN001:WALL004,Surface Outside Face Net Thermal Radiation Heat Gain Rate [W] !TimeStep
53,1,ZN001:WALL004,Surface Outside Face Thermal Radiation to Sky Heat Transfer Coefficient [W/m2-K] !TimeStep
54,1,ZN001:WALL004,Surface Outside Face Thermal Radiation to Ground Heat Transfer Coefficient [W/m2-K] !TimeStep
55,1,ZN001:WALL004,Surface Outside Face Thermal Radiation to Air Heat Transfer Rate [W] !TimeStep
56,1,ZN001:WALL004,Surface Outside Face Solar Radiation Heat Gain Rate [W] !TimeStep
57,1,ZN001:FLR001,Surface Inside Face Temperature [C] !TimeStep
58,1,ZN001:FLR001,Surface Outside Face Temperature [C] !TimeStep
59,1,ZN001:ROOF001,Surface Inside Face Temperature [C] !TimeStep
60,1,ZN001:ROOF001,Surface Outside Face Temperature [C] !TimeStep
61,1,ZN001:ROOF001,Surface Outside Face Convection Heat Transfer Coefficient [W/m2-K] !TimeStep
62,1,ZN001:ROOF001,Surface Outside Face Net Thermal Radiation Heat Gain Rate [W] !TimeStep
63,1,ZN001:ROOF001,Surface Outside Face Thermal Radiation to Sky Heat Transfer Coefficient [W/m2-K] !TimeStep
64,1,ZN001:ROOF001,Surface Outside Face Thermal Radiation to Ground Heat Transfer Coefficient [W/m2-K] !TimeStep
65,1,ZN001:ROOF001,Surface Outside Face Thermal Radiation to Air Heat Transfer Rate [W] !TimeStep
66,1,ZN001:ROOF001,Surface Outside Face Solar Radiation Heat Gain Rate [W] !TimeStep
67,1,ZN001:WALL001:WIN001,Surface Inside Face Temperature [C] !TimeStep
68,1,ZN001:WALL001:WIN001,Surface Outside Face Temperature [C] !TimeStep
69,1,ZN001:WALL001:WIN001,Surface Outside Face Convection Heat Transfer Coefficient [W/m2-K] !TimeStep
70,1,ZN001:WALL001:WIN001,Surface Outside Face Net Thermal Radiation Heat Gain Rate [W] !TimeStep
71,1,ZN001:WALL001:WIN001,Surface Outside Face Thermal Radiation to Sky Heat Transfer Coefficient [W/m2-K] !TimeStep
72,1,ZN001:WALL001:WIN001,Surface Outside Face Thermal Radiation to Ground Heat Transfer Coefficient [W/m2-K] !TimeStep
73,1,ZN001:WALL001:WIN001,Surface Outside Face Thermal Radiation to Air Heat Transfer Rate [W] !TimeStep
74,1,ZONE ONE,Zone Mean Air Temperature [C] !TimeStep
75,1,ZONE ONE,Zone Air Heat Balance Internal Convective Heat Gain Rate [W] !TimeStep
76,1,ZONE ONE,Zone Air Heat Balance Surface Convection Rate [W] !TimeStep
77,1,ZONE ONE,Zone Air Heat Balance Outdoor Air Transfer Rate [W] !TimeStep
78,1,ZONE ONE,Zone Air Heat Balance Air Energy Storage Rate [W] !TimeStep
End of Data Dictionary
1,RUN PERIOD 1,  55.95,  -3.37,   0.00,  41.10
2,1, 1, 1, 0, 1, 0.00,15.00,Sunday
7,2.125
8,-5.260499215095706
9,0.0
10,0.0
11,18.89
12,0.0
13,0.0
14,0.0
15,0.0
16,0.0
17,0.0
18,0.0
19,0.0
20,0.0
21,0.0
22,0.0
23,0.0
24,-108.82274224841439
25,5.163905525845776
26,1.9109222641844568
27,1000.0
28,-582.1428387607519
29,1.4432167017711524
30,2.125041426727632
31,-7.656024751211065
32,0.0
33,5.154200011473974
34,1.910917795259878
35,1000.0
36,-689.0879024177308
37,1.443216666158061
38,2.1250413754517887
39,-9.062718807999534
40,0.0
41,5.15420001147397
42,1.9109177952598764
43,1000.0
44,-689.0879024177303
45,1.443216666158061
46,2.1250413754517887
47,-9.062718807999602
48,0.0
49,5.154200011473939
50,1.9109177952598764
51,1000.0
52,-689.0879024177303
53,1.443216666158061
54,2.1250413754517887
55,-9.062718807999602
56,0.0
57,5.74957854669084
58,5.7700845129911915
59,5.317301053062788
60,1.8760279435962544
61,1000.0
62,-6765.001387438115
63,4.081417601815586
64,0.0
65,0.0
66,0.0
67,3.5949238623556994
68,1.9085116100368964
69,1000.0
70,-94.22067706329217
71,1.346887475940124
72,1.9832620072312728
73,1.23095794790928
74,5.409337586275091
75,0.0
76,-19.205559792633508
77,0.0
78,-20.468521318383413
2,1, 1, 1, 0, 1,15.00,30.00,Sunday
7,2.25
8,-8.293258983490432
9,0.0
10,0.0
11,18.89
12,0.0
13,0.0
14,0.0
15,0.0
16,0.0
17,0.0
18,0.0
19,0.0
20,0.0
21,0.0
22,0.0
23,0.0
24,-105.0762356659073
25,5.160739066432216
26,2.0149788471687313
27,1000.0
28,-831.874710344998
29,1.4202516591941807
30,2.127698784551804
31,-8.433865786760776
32,0.0
33,5.151319292235006
34,2.0149744798246156
35,1000.0
36,-984.6984406467006
37,1.4202516234919156
38,2.127698732750959
39,-9.983454062847429
40,0.0
41,5.151319292235044
42,2.0149744798246156
43,1000.0
44,-984.6984406467006
45,1.4202516234919156
46,2.127698732750959
47,-9.983454062847429
48,0.0
49,5.151319292235034
50,2.0149744798246156
51,1000.0
52,-984.6984406467006
53,1.4202516234919156
54,2.127698732750959
55,-9.983454062847429
56,0.0
57,5.729672580555183
58,5.74957854669084
59,5.309305746410455
60,1.972252807065347
61,1000.0
62,-9575.81161010248
63,4.016289901230596
64,0.0
65,0.0
66,0.0
67,3.642152506876471
68,2.01413801198845
69,1000.0
70,-133.41147624631083
71,1.3255502405384465
72,1.9858814363733976
73,1.342682148608668
74,5.3970756023153355
75,0.0
76,-16.559096058822963
77,0.0
78,-18.350618588223313
2,1, 1, 1, 0, 1,30.00,45.00,Sunday
7,2.375
8,-11.433930583453161
9,0.0
10,0.0
11,18.89
12,0.0
13,0.0
14,0.0
15,0.0
16,0.0
17,0.0
18,0.0
19,0.0
20,0.0
21,0.0
22,0.0
23,0.0
24,-126.08337862392045
25,4.794075177828119
26,0.06960327083003659
27,3.3919536522462783
28,-572.2415238882122
29,1.3968001028107317
30,2.1303561352919225
31,-84.48682326184647
32,0.0
33,4.785611592464329
34,0.0693973471012766
35,3.391953554847225
36,-677.3093447699921
37,1.3968000681686008
38,2.1303560846277856
39,-100.01698218751184
40,0.0
41,4.765100855183564
42,-0.21005868923034315
43,2.54403631844879
44,-596.4797715006505
45,1.3968000681686008
46,2.1303560846277856
47,-112.16670028639876
48,0.0
49,4.765100855183585
50,-0.21005868923034263
51,2.54403631844879
52,-596.4797715006509
53,1.3968000681686008
54,2.1303560846277856
55,-112.16670028639874
56,0.0
57,5.683511624506005
58,5.729672580555183
59,4.877019593113542
60,-5.326894953309508
61,2.9237878994374324
62,-5602.401954451627
63,3.949788827722839
64,0.0
65,0.0
66,0.0
67,3.309746344010591
68,1.3713722819211966
69,2.2920225112167265
70,-137.7097975147055
71,1.3036738710343951
72,1.9883786537710524
73,5.703973738204475
74,5.3378377972196205
75,0.0
76,-147.9402100576545
77,0.0
78,-88.66939680559078
2,1, 1, 1, 0, 1,45.00,60.00,Sunday
7,2.5
8,-14.691922030337082
9,0.0
10,0.0
11,18.89
12,0.0
13,0.0
14,0.0
15,0.0
16,0.0
17,0.0
18,0.0
19,0.0
20,0.0
21,0.0
22,0.0
23,0.0
24,-138.8329504589952
25,4.64102603959667
26,-1.0757082686138153
27,1.7596445760007353
28,-513.6294001961452
29,1.3567740648964992
30,2.1093395210429247
31,-129.8500759722241
32,0.0
33,4.630929318093576
34,-1.0762584526733239
35,1.7596943765958852
36,-607.8317544196608
37,1.356772460076008
38,2.109337153914092
39,-153.72855116248013
40,0.0
41,4.635572880310542
42,-1.0315086165954384
43,1.8248349743958139
44,-619.5150587831397
45,1.354596101701833
46,2.1061269419549404
47,-151.57116032590295
48,0.0
49,4.635572880310539
50,-1.0315086165954388
51,1.8248349743958139
52,-619.5150587831396
53,1.354596101701833
54,2.1061269419549404
55,-151.57116032590298
56,0.0
57,5.641838447472298
58,5.683511624506005
59,4.711603813489769
60,-9.25849489746429
61,1.5074058279847615
62,-4694.695186232728
63,3.720177131861099
64,0.0
65,0.0
66,0.0
67,2.906464155745425
68,0.7714007034935548
69,1.3636013917383598
70,-149.28263208000487
71,1.275821974610568
72,1.9827829126347518
73,9.79888163021544
74,5.214154207732845
75,0.0
76,-242.07910946667914
77,0.0
78,-185.21333888383094
2,1, 1, 1, 0, 2, 0.00,15.00,Sunday
7,2.45
8,-13.865862325871092
9,0.0
10,0.0
11,18.89
12,0.0
13,0.0
14,0.0
15,0.0
16,0.0
17,0.0
18,0.0
19,0.0
20,0.0
21,0.0
22,0.0
23,0.0
24,-130.53250405976857
25,4.645321181136671
26,-0.6158072176363362
27,2.392366211870344
28,-567.3298575648628
29,1.354072380929564
30,2.095634096014087
31,-110.58356155321299
32,0.0
33,4.635245877987492
34,-0.6164150619279438
35,2.392451396706375
36,-671.3806181949492
37,1.3540681089634363
38,2.0956278074904535
39,-130.92464652600077
40,0.0
41,4.625146307441704
42,-0.7562605017319965
43,2.099635644395242
44,-631.955484429965
45,1.3544156124878524
46,2.096139346695883
47,-136.93891570912493
48,0.0
49,4.625146307441705
50,-0.7562605017319964
51,2.099635644395242
52,-631.955484429965
53,1.3544156124878524
54,2.096139346695883
55,-136.93891570912493
56,0.0
57,5.606184252563358
58,5.641838447472298
59,4.718537745129247
60,-7.878439979215611
61,1.8968504706543445
62,-5081.110638943648
63,3.6538340920968055
64,0.0
65,0.0
66,0.0
67,2.918534765140123
68,0.9073530968591967
69,1.8234881024217777
70,-146.3098242949314
71,1.2772487464604447
72,1.9757739628976292
73,8.748862460846278
74,5.0936166370450415
75,0.0
76,-144.4076439661135
77,0.0
78,-180.58044303245083
2,1, 1, 1, 0, 2,15.00,30.00,Sunday
7,2.4
8,-13.047623295940127
9,0.0
10,0.0
11,18.89
12,0.0
13,0.0
14,0.0
15,0.0
16,0.0
17,0.0
18,0.0
19,0.0
20,0.0
21,0.0
22,0.0
23,0.0
24,-125.23118773704286
25,4.611045388432178
26,-0.347306659298102
27,2.808625706795567
28,-580.6172127052765
29,1.3638200316249356
30,2.1003196137868074
31,-99.2975997088646
32,0.0
33,4.601258974696187
34,-0.3479037566790807
35,2.808705129631103
36,-687.111135381674
37,1.3638152915437889
38,2.1003126514819552
39,-117.5649233413184
40,0.0
41,4.587662078987971
42,-0.5473133707350786
43,2.3134056599148503
44,-629.9075704036484
45,1.3627251330229526
46,2.098711396595525
47,-126.01610824696098
48,0.0
49,4.587662078987972
50,-0.5473133707350788
51,2.3134056599148503
52,-629.9075704036483
53,1.3627251330229526
54,2.098711396595525
55,-126.01610824696101
56,0.0
57,5.568343329056223
58,5.606184252563358
59,4.689985831386206
60,-6.8913304296138325
61,2.2276000199177965
62,-5290.6546331928685
63,3.7001574651481124
64,0.0
65,0.0
66,0.0
67,2.9514088542041463
68,1.0192044361039052
69,2.0887514088690566
70,-142.41734282123863
71,1.2840268971221525
72,1.976697354552447
73,7.833581411221378
74,5.011954005110092
75,0.0
76,-75.37898188886066
77,0.0
78,-122.37681156400865
2,1, 1, 1, 0, 2,30.00,45.00,Sunday
7,2.3499999999999996
8,-12.237034327235847
9,0.0
10,0.0
11,18.89
12,0.0
13,0.0
14,0.0
15,0.0
16,0.0
17,0.0
18,0.0
19,0.0
20,0.0
21,0.0
22,0.0
23,0.0
24,-120.29899778412789
25,4.601008893844829
26,-0.09114409092928547
27,3.2741832563507836
28,-590.4727303888621
29,1.37205939486024
30,2.1028198388686064
31,-88.31616708489024
32,0.0
33,4.591336664894182
34,-0.09169809950751011
35,3.2742452762711767
36,-698.7890539190889
37,1.3720547230353568
38,2.102812991548957
39,-104.5643048512433
40,0.0
41,4.576969404579489
42,-0.3027654288187506
43,2.6510559893311294
44,-637.8770045357727
45,1.3704952735963862
46,2.1005273395061757
47,-113.49859176968347
48,0.0
49,4.57696940457949
50,-0.3027654288187506
51,2.6510559893311294
52,-637.8770045357727
53,1.3704952735963862
54,2.1005273395061757
55,-113.49859176968347
56,0.0
57,5.532129538778392
58,5.568343329056223
59,4.688591715640717
60,-5.808262851120518
61,2.7150175219970407
62,-5581.761485804852
63,3.7382931294953474
64,0.0
65,0.0
66,0.0
67,2.9787540628715874
68,1.1216713748384564
69,2.3613560584915607
70,-138.1682044995241
71,1.2906018620995259
72,1.9773617923293594
73,6.970586554031873
74,4.967483391577027
75,0.0
76,-39.61544765597621
77,0.0
78,-66.65278793380897
2,1, 1, 1, 0, 2,45.00,60.00,Sunday
7,2.3
8,-11.433930583453161
9,0.0
10,0.0
11,18.89
12,0.0
13,0.0
14,0.0
15,0.0
16,0.0
17,0.0
18,0.0
19,0.0
20,0.0
21,0.0
22,0.0
23,0.0
24,-116.2488143375569
25,4.601085366529611
26,0.13086414890576673
27,3.742030339782346
28,-592.2104497748885
29,1.3801809987006546
30,2.1051818253498737
31,-78.54288761378378
32,0.0
33,4.591579066593947
34,0.13034720297448937
35,3.7420741084732216
36,-700.856360587115
37,1.380176649904444
38,2.105175465008942
39,-92.99405461119937
40,0.0
41,4.578508286289347
42,-0.0617909872978297
43,3.0637729575951975
44,-645.1438139689924
45,1.3785207073991752
46,2.1027535364170324
47,-101.13229447639277
48,0.0
49,4.578508286289348
50,-0.0617909872978297
51,3.0637729575951975
52,-645.1438139689924
53,1.3785207073991752
54,2.1027535364170324
55,-101.13229447639277
56,0.0
57,5.49800612409816
58,5.532129538778392
59,4.697656351982519
60,-4.807250590297931
61,3.284866032518857
62,-5815.63323351911
63,3.778601363379474
64,0.0
65,0.0
66,0.0
67,3.0167686228028288
68,1.2221597303702083
69,2.6279704945259397
70,-133.84655792956352
71,1.2970812904967144
72,1.977925568731303
73,6.118265270312793
74,4.945907054830128
75,0.0
76,-22.324872034728713
77,0.0
78,-32.34123528917508
2,1, 1, 1, 0, 3, 0.00,15.00,Sunday
7,2.25
8,-10.88223654567247
9,0.0
10,0.0
11,18.89
12,0.0
13,0.0
14,0.0
15,0.0
16,0.0
17,0.0
18,0.0
19,0.0
20,0.0
21,0.0
22,0.0
23,0.0
24,-114.23180553463177
25,4.591964195318097
26,0.23006346593275903
27,3.9662711874541294
28,-582.9490238699507
29,1.3861427239102582
30,2.1071543797778935
31,-73.19625125448984
32,0.0
33,4.58259325886031
34,0.22957630726886447
35,3.9663055155589166
36,-689.9019208305925
37,1.3861386560585325
38,2.1071484392486104
39,-86.66395570409371
40,0.0
41,4.570545102256112
42,0.05307941312361292
43,3.2778241886433035
44,-638.6373373920572
45,1.3846274415943483
46,2.1049415006537306
47,-94.15507969532393
48,0.0
49,4.570545102256112
50,0.05307941312361292
51,3.2778241886433035
52,-638.6373373920572
53,1.3846274415943483
54,2.1049415006537306
55,-94.15507969532393
56,0.0
57,5.464868581323725
58,5.49800612409816
59,4.692876601865254
60,-4.304226092517765
61,3.583626246389735
62,-5824.002619530453
63,3.812036658180981
64,0.0
65,0.0
66,0.0
67,3.0357224328381562
68,1.273411744558416
69,2.742381055969055
70,-130.53804585832992
71,1.3017698602246304
72,1.9784684226432625
73,5.543551193317557
74,4.932488614284421
75,0.0
76,-21.362058752545106
77,0.0
78,-20.11415971551671
2,1, 1, 1, 0, 3,15.00,30.00,Sunday
7,2.2
8,-10.334002252279845
9,0.0
10,0.0
11,18.89
12,0.0
13,0.0
14,0.0
15,0.0
16,0.0
17,0.0
18,0.0
19,0.0
20,0.0
21,0.0
22,0.0
23,0.0
24,-112.23505924842159
25,4.586171149694294
26,0.3248282119319387
27,4.198551222946296
28,-572.2113861077843
29,1.3911277147530268
30,2.1077170056221215
31,-67.95526257033832
32,0.0
33,4.57692170626515
34,0.32436237264466
35,4.198577467245307
36,-677.1977375828004
37,1.3911238742456864
38,2.107711405376322
39,-80.4592557626197
40,0.0
41,4.566236543855992
42,0.16773208799943798
43,3.519159547443804
44,-631.6290151658061
45,1.3897330740690288
46,2.1056833171826583
47,-87.11267652094102
48,0.0
49,4.566236543855992
50,0.16773208799943798
51,3.519159547443804
52,-631.6290151658061
53,1.3897330740690288
54,2.1056833171826583
55,-87.11267652094102
56,0.0
57,5.433070780915423
58,5.464868581323725
59,4.691531228980417
60,-3.8191005240079003
61,3.90251997735469
62,-5802.465372774573
63,3.8347296750505095
64,0.0
65,0.0
66,0.0
67,3.0523475234844
68,1.32156077579657
69,2.8645414893597883
70,-127.1102546726302
71,1.3060826167618165
72,1.9784806441874914
73,4.986360084659223
74,4.919675164647062
75,0.0
76,-22.52776275031574
77,0.0
78,-19.20816714235686
2,1, 1, 1, 0, 3,30.00,45.00,Sunday
7,2.1500000000000004
8,-9.78917749753515
9,0.0
10,0.0
11,18.89
12,0.0
13,0.0
14,0.0
15,0.0
16,0.0
17,0.0
18,0.0
19,0.0
20,0.0
21,0.0
22,0.0
23,0.0
24,-111.54461475311867
25,4.569558487638156
26,0.26955064605518075
27,3.759387146301509
28,-525.0748973523944
29,1.3960654260074445
30,2.108229047501239
31,-68.16359677742847
32,0.0
33,4.570683979000422
34,0.4111234696390954
35,4.429321680299485
36,-662.1943939673181
37,1.3960617469320564
38,2.108223690521242
39,-74.5947153269485
40,0.0
41,4.571531431991285
42,0.415318721689906
43,4.435985106547407
44,-662.8012104081308
45,1.3948252034393547
46,2.1064231878010005
47,-74.35066358530516
48,0.0
49,4.56138343935034
50,0.2748417465834874
51,3.7711128631795496
52,-622.4919949369516
53,1.3948252034393547
54,2.1064231878010005
55,-80.3894723880493
56,0.0
57,5.402376101240283
58,5.433070780915423
59,4.689254029988392
60,-3.370920117996556
61,4.229739586774066
62,-5749.658443339873
63,3.8570474663786842
64,0.0
65,0.0
66,0.0
67,3.0505176335653914
68,1.3301953358028413
69,2.537670065046377
70,-122.1580033242578
71,1.310359687270128
72,1.9784595333979969
73,4.652475924500656
74,4.905720065336006
75,0.0
76,-22.648048877476885
77,0.0
78,-20.920621742530738
2,1, 1, 1, 0, 3,45.00,60.00,Sunday
7,2.1
8,-9.247713211163784
9,0.0
10,0.0
11,18.89
12,0.0
13,0.0
14,0.0
15,0.0
16,0.0
17,0.0
18,0.0
19,0.0
20,0.0
21,0.0
22,0.0
23,0.0
24,-109.53164384473563
25,4.564698860006393
26,0.37529642812660385
27,4.032947992638383
28,-516.5343261540283
29,1.3998042353352687
30,2.1070160775851488
31,-62.46669402619869
32,0.0
33,4.56353320267352
34,0.49071102013296897
35,4.65853445241803
36,-645.1154658876268
37,1.4009239128157651
38,2.108644039250091
39,-69.0330196871184
40,0.0
41,4.563475405513888
42,0.4905149018566309
43,4.658415595560009
44,-645.0745976103027
45,1.4009571043771514
46,2.1086922980176674
47,-69.04303938074673
48,0.0
49,4.555602477834978
50,0.37454186915597615
51,4.032632101929788
52,-611.2294471770308
53,1.399846067722153
54,2.1070769003822813
55,-73.9771310564297
56,0.0
57,5.372648513151733
58,5.402376101240283
59,4.685790208905272
60,-2.957151296012283
61,4.563612593963031
62,-5666.7068650393485
63,3.8785676622065974
64,0.0
65,0.0
66,0.0
67,3.0692573083686057
68,1.3813220940455722
69,2.6819443263351297
70,-118.84493325129924
71,1.3143310106626436
72,1.978012369636904
73,4.078594130908998
74,4.891196457375399
75,0.0
76,-21.912625391008913
77,0.0
78,-21.77403206382107
2,1, 1, 1, 0, 4, 0.00,15.00,Sunday
7,2.075
8,-8.828866862773395
9,0.0
10,0.0
11,18.89
12,0.0
13,0.0
14,0.0
15,0.0
16,0.0
17,0.0
18,0.0
19,0.0
20,0.0
21,0.0
22,0.0
23,0.0
24,-108.32735262332119
25,4.540124382955314
26,0.36112224781058605
27,3.7501478384160283
28,-484.6739198120693
29,1.4038788666009379
30,2.1079432412605383
31,-62.100745450322066
32,0.0
33,4.540110467198466
34,0.4880081076417407
35,4.4199704161079705
36,-610.624633872294
37,1.4047930190580313
38,2.10927092375238
39,-68.09374211669935
40,0.0
41,4.540114507723313
42,0.48802111601561826
43,4.419977464701327
44,-610.627692627199
45,1.4047914652418607
46,2.1092686670556775
47,-68.09310930564712
48,0.0
49,4.531306893303554
50,0.3606810561541961
51,3.7502029824651952
52,-573.5847123689107
53,1.4038728917593493
54,2.1079345635721736
55,-73.52804893083777
56,0.0
57,5.342551183964517
58,5.372648513151733
59,4.660010398232437
60,-2.994081444401049
61,4.225264510846611
62,-5280.767307603761
63,3.8967469858655166
64,0.0
65,0.0
66,0.0
67,3.075278904294919
68,1.403726226223057
69,2.5041730663119766
70,-115.24883714879088
71,1.3177404286578023
72,1.9782936775059083
73,3.809514489364145
74,4.874107789542246
75,0.0
76,-28.540156173455387
77,0.0
78,-25.621186738636517
2,1, 1, 1, 0, 4,15.00,30.00,Sunday
7,2.05
8,-8.412002228312929
9,0.0
10,0.0
11,18.89
12,0.0
13,0.0
14,0.0
15,0.0
16,0.0
17,0.0
18,0.0
19,0.0
20,0.0
21,0.0
22,0.0
23,0.0
24,-106.86476428128793
25,4.517379506890003
26,0.3521363174683778
27,3.477900273039087
28,-453.7184570472034
29,1.4069962792691648
30,2.1074915706603488
31,-61.50557416858566
32,0.0
33,4.5180308380730905
34,0.48702964538959953
35,4.1777993930844675
36,-576.324621291399
37,1.408002276076471
38,2.1089510652421297
39,-67.04954162563507
40,0.0
41,4.5180305530739515
42,0.48702870235157136
43,4.177798780386809
44,-576.3243925218361
45,1.4080023792438738
46,2.1089512149160763
47,-67.04958697206331
48,0.0
49,4.508700110881726
50,0.35166827858830085
51,3.4779398730556466
52,-536.9356923067727
53,1.4069927824427755
54,2.1074864974588157
55,-72.8248157970202
56,0.0
57,5.312846960822584
58,5.342551183964517
59,4.63597590677082
60,-3.021658284953381
61,3.8888097316784913
62,-4888.847998190298
63,3.9049917739114437
64,0.0
65,0.0
66,0.0
67,3.0750001959544306
68,1.4261989886560968
69,2.332412945682402
70,-111.65543197501235
71,1.3209290567854317
72,1.9782652382701922
73,3.540054489590967
74,4.853471828842909
75,0.0
76,-34.08980694599606
77,0.0
78,-30.941970084690055
2,1, 1, 1, 0, 4,30.00,45.00,Sunday
7,2.025
8,-7.997097567027481
9,0.0
10,0.0
11,18.89
12,0.0
13,0.0
14,0.0
15,0.0
16,0.0
17,0.0
18,0.0
19,0.0
20,0.0
21,0.0
22,0.0
23,0.0
24,-105.33964538028728
25,4.493468292000154
26,0.3448186529900252
27,3.2097103341825006
28,-423.18255716145654
29,1.4101460945448316
30,2.1070996182277866
31,-60.851774126939766
32,0.0
33,4.494703637173157
34,0.4860350988827108
35,3.929213203117306
36,-542.0247045592421
37,1.411216638610965
38,2.1086510860680305
39,-66.0069691786115
40,0.0
41,4.494703657640168
42,0.4860351694543765
43,3.9292132595912146
44,-542.024721982059
45,1.411216631124305
46,2.1086510752182046
47,-66.00696580204439
48,0.0
49,4.484945860242483
50,0.3443461086718012
51,3.2097610583582004
52,-500.7886253041921
53,1.4101423813230816
54,2.107094236876831
55,-72.05108640211449
56,0.0
57,5.2833757862571735
58,5.312846960822584
59,4.610783330802029
60,-3.048126773630827
61,3.554908818751487
62,-4498.223367882252
63,3.9134175882257365
64,0.0
65,0.0
66,0.0
67,3.075869190317974
68,1.4510197049127669
69,2.159984116588574
70,-108.15276849649531
71,1.3241105535879483
72,1.9782375690641012
73,3.257319392883263
74,4.830037993058852
75,0.0
76,-36.86019046766857
77,0.0
78,-35.140121736080985
2,1, 1, 1, 0, 4,45.00,60.00,Sunday
7,2.0
8,-7.584131510631607
9,0.0
10,0.0
11,18.89
12,0.0
13,0.0
14,0.0
15,0.0
16,0.0
17,0.0
18,0.0
19,0.0
20,0.0
21,0.0
22,0.0
23,0.0
24,-103.72333154389266
25,4.468908354715272
26,0.3400204996843992
27,2.9472049309647073
28,-393.26360372062555
29,1.413300559779444
30,2.106726897182656
31,-60.10725036202914
32,0.0
33,4.470568097685049
34,0.4852263722173175
35,3.6737687814888726
36,-507.77703940634285
37,1.414422396557256
38,2.1083509583309596
39,-64.9566907620389
40,0.0
41,4.47056809618609
42,0.4852263667851842
43,3.6737687762163995
44,-507.7770380438752
45,1.4144223971180794
46,2.108350959142849
47,-64.95669102078227
48,0.0
49,4.460543247208426
50,0.3395419352388156
51,2.9472659976305984
52,-465.37147425403083
53,1.4132968071547916
54,2.106721464553872
55,-71.17004071491276
56,0.0
57,5.254068406573696
58,5.2833757862571735
59,4.584893648492326
60,-3.0720394877232513
61,3.224922085731884
62,-4109.964751993125
63,3.921843099092939
64,0.0
65,0.0
66,0.0
67,3.0767710080292545
68,1.4772962730118024
69,1.9862100250109658
70,-104.70644877498626
71,1.3273019802833512
72,1.9782352593543715
73,2.966346658176703
74,4.804993247639486
75,0.0
76,-38.170268894260985
77,0.0
78,-37.55913922748392
2,1, 1, 1, 0, 5, 0.00,15.00,Sunday
7,2.025
8,-7.819875967085466
9,0.0
10,0.0
11,18.89
12,0.0
13,0.0
14,0.0
15,0.0
16,0.0
17,0.0
18,0.0
19,0.0
20,0.0
21,0.0
22,0.0
23,0.0
24,-103.92059648145184
25,4.440255280317761
26,0.31566310464991926
27,2.951050209646609
28,-402.0085592189568
29,1.4114277839695488
30,2.106960318644196
31,-61.906839553391464
32,0.0
33,4.44217061825893
34,0.46480107652520153
35,3.6757014602238245
36,-519.2673177252668
37,1.412580631425902
38,2.1086303391148413
39,-66.92008201864401
40,0.0
41,4.442170618370294
42,0.46480107693185085
43,3.675701460631532
44,-519.2673178264102
45,1.412580631382759
46,2.1086303390523415
47,-66.92008199916118
48,0.0
49,4.43187865713474
50,0.31519669811129464
51,2.9511118736914765
52,-475.7264888649216
53,1.4114239858210478
54,2.1069548165982086
55,-73.29970691290444
56,0.0
57,5.2246074031547485
58,5.254068406573696
59,4.553760814306563
60,-3.183993316732488
61,3.225835758473372
62,-4216.614378249715
63,3.916169830212099
64,0.0
65,0.0
66,0.0
67,3.0472350401158224
68,1.4497668846882448
69,1.985760999939798
70,-105.92308780711869
71,1.3257805849475832
72,1.9787888453927724
73,3.2644068055034077
74,4.778447869933562
75,0.0
76,-40.87971778847668
77,0.0
78,-39.81341185474426
2,1, 1, 1, 0, 5,15.00,30.00,Sunday
7,2.05
8,-8.056250476995217
9,0.0
10,0.0
11,18.89
12,0.0
13,0.0
14,0.0
15,0.0
16,0.0
17,0.0
18,0.0
19,0.0
20,0.0
21,0.0
22,0.0
23,0.0
24,-103.9179591106202
25,4.409974395537878
26,0.29221311291924296
27,2.9573945648496522
28,-410.93073067457664
29,1.4093971709614581
30,2.106968899498472
31,-63.66706643267978
32,0.0
33,4.4121424083690846
34,0.4449324047168906
35,3.6791236583485682
36,-530.8611922561289
37,1.4105804207990802
38,2.108684060920984
39,-68.8526667290593
40,0.0
41,4.400476856301883
42,0.28407216799815216
43,2.938130446203253
44,-484.4937426589817
45,1.4105804208023103
46,2.1086840609256434
47,-75.77513102320212
48,0.0
49,4.401609471575696
50,0.2917487791025478
51,2.9574543667221356
52,-486.28843232551804
53,1.4093934718924912
54,2.1069635375401927
55,-75.3832183968301
56,0.0
57,5.1949553645406015
58,5.2246074031547485
59,4.5209335047022
60,-3.293307282526784
61,3.2284080888333424
62,-4323.752253190255
63,3.908548140690631
64,0.0
65,0.0
66,0.0
67,3.018166697868139
68,1.4206521245848194
69,2.0038809213248157
70,-107.07865262172616
71,1.323855838043194
72,1.9787619297692576
73,3.571424779084799
74,4.750063227097962
75,0.0
76,-44.120571255287786
77,0.0
78,-42.57633532813817
2,1, 1, 1, 0, 5,30.00,45.00,Sunday
7,2.075
8,-8.293258983490432
9,0.0
10,0.0
11,18.89
12,0.0
13,0.0
14,0.0
15,0.0
16,0.0
17,0.0
18,0.0
19,0.0
20,0.0
21,0.0
22,0.0
23,0.0
24,-102.66727724514259
25,4.393672774872116
26,0.4307049648931346
27,3.6942533258988606
28,-459.23850466990314
29,1.4073712321248142
30,2.1069879457069454
31,-59.54494569100526
32,0.0
33,4.384349268135074
34,0.42495552860666314
35,3.682527240435948
36,-542.4255031951005
37,1.4085820630414057
38,2.10874421605304
39,-70.790222375044
40,0.0
41,4.373667690548654
42,0.26871178323650596
43,2.9646299125601754
44,-496.9496245741178
45,1.4073067124970382
46,2.1068943615295215
47,-77.44621442956938
48,0.0
49,4.373567216169554
50,0.26818430860279824
51,2.9636508817153073
52,-496.8197257377294
53,1.4073675520589959
54,2.10698260786106
55,-77.47213927346027
56,0.0
57,5.16554066031301
58,5.1949553645406015
59,4.490764120487839
60,-3.4027468158604894
61,3.2309495123312875
62,-4430.9630444185705