Program Version,EnergyPlus, Version 23.2.0-7636e6b3e9, YMD=2026.07.21 23:27
1,5,Environment Title[],Latitude[deg],Longitude[deg],Time Zone[],Elevation[m]
2,8,Day of Simulation[],Month[],Day of Month[],DST Indicator[1=yes 0=no],Hour[],StartMinute[],EndMinute[],DayType
3,5,Cumulative Day of Simulation[],Month[],Day of Month[],DST Indicator[1=yes 0=no],DayType  ! When Daily Report Variables Requested
4,2,Cumulative Days of Simulation[],Month[]  ! When Monthly Report Variables Requested
5,1,Cumulative Days of Simulation[] ! When Run Period Report Variables Requested
6,1,Calendar Year of Simulation[] ! When Annual Report Variables Requested
7,1,Environment,Site Outdoor Air Drybulb Temperature [C] !TimeStep
8,1,Environment,Site Sky Temperature [C] !TimeStep
9,1,Environment,Site Diffuse Solar Radiation Rate per Area [W/m2] !TimeStep
10,1,Environment,Site Direct Solar Radiation Rate per Area [W/m2] !TimeStep
11,1,Environment,Site Ground Temperature [C] !TimeStep
12,1,ZONE ONE,Zone Total Internal Radiant Heating Rate [W] !TimeStep
13,1,ZONE ONE,Zone Total Internal Convective Heating Rate [W] !TimeStep
14,1,ZONE ONE,Zone Windows Total Transmitted Solar Radiation Rate [W] !TimeStep
15,1,ZN001:WALL001,Surface Outside Face Sunlit Fraction [] !TimeStep
16,1,ZN001:WALL001,Surface Outside Face Incident Solar Radiation Rate per Area [W/m2] !TimeStep
17,1,ZN001:WALL002,Surface Outside Face Incident Solar Radiation Rate per Area [W/m2] !TimeStep
18,1,ZN001:WALL003,Surface Outside Face Incident Solar Radiation Rate per Area [W/m2] !TimeStep
19,1,ZN001:WALL004,Surface Outside Face Incident Solar Radiation Rate per Area [W/m2] !TimeStep
20,1,ZN001:ROOF001,Surface Outside Face Incident Solar Radiation Rate per Area [W/m2] !TimeStep
21,1,ZN001:WALL001:WIN001,Surface Outside Face Sunlit Fraction [] !TimeStep
22,1,ZN001:WALL001:WIN001,Surface Outside Face Incident Solar Radiation Rate per Area [W/m2] !TimeStep
23,1,ZN001:WALL001:WIN001,Surface Window Transmitted Solar Radiation Rate [W] !TimeStep
24,1,ZN001:WALL001:WIN001,Surface Window Net Heat Transfer Rate [W] !TimeStep
25,1,ZN001:WALL001,Surface Inside Face Temperature [C] !TimeStep
26,1,ZN001:WALL001,Surface Outside Face Temperature [C] !TimeStep
27,1,ZN001:WALL001,Surface Outside Face Outdoor Air Drybulb Temperature [C] !TimeStep
28,1,ZN001:WALL001,Surface Outside Face Convection Heat Transfer Coefficient [W/m2-K] !TimeStep
29,1,ZN001:WALL001,Surface Outside Face Net Thermal Radiation Heat Gain Rate [W] !TimeStep
30,1,ZN001:WALL001,Surface Outside Face Thermal Radiation to Sky Heat Transfer Coefficient [W/m2-K] !TimeStep
31,1,ZN001:WALL001,Surface Outside Face Thermal Radiation to Ground Heat Transfer Coefficient [W/m2-K] !TimeStep
32,1,ZN001:WALL001,Surface Outside Face Thermal Radiation to Air Heat Transfer Rate [W] !TimeStep
33,1,ZN001:WALL001,Surface Outside Face Solar Radiation Heat Gain Rate [W] !TimeStep
34,1,ZN001:WALL002,Surface Inside Face Temperature [C] !TimeStep
35,1,ZN001:WALL002,Surface Outside Face Temperature [C] !TimeStep
36,1,ZN001:WALL002,Surface Outside Face Outdoor Air Drybulb Temperature [C] !TimeStep
37,1,ZN001:WALL002,Surface Outside Face Convection Heat Transfer Coefficient [W/m2-K] !TimeStep
38,1,ZN001:WALL002,Surface Outside Face Net Thermal Radiation Heat Gain Rate [W] !TimeStep
39,1,ZN001:WALL002,Surface Outside Face Thermal Radiation to Sky Heat Transfer Coefficient [W/m2-K] !TimeStep
40,1,ZN001:WALL002,Surface Outside Face Thermal Radiation to Ground Heat Transfer Coefficient [W/m2-K] !TimeStep
41,1,ZN001:WALL002,Surface Outside Face Thermal Radiation to Air Heat Transfer Rate [W] !TimeStep
42,1,ZN001:WALL002,Surface Outside Face Solar Radiation Heat Gain Rate [W] !TimeStep
43,1,ZN001:WALL003,Surface Inside Face Temperature [C] !TimeStep
44,1,ZN001:WALL003,Surface Outside Face Temperature [C] !TimeStep
45,1,ZN001:WALL003,Surface Outside Face Outdoor Air Drybulb Temperature [C] !TimeStep
46,1,ZN001:WALL003,Surface Outside Face Convection Heat Transfer Coefficient [W/m2-K] !TimeStep
47,1,ZN001:WALL003,Surface Outside Face Net Thermal Radiation Heat Gain Rate [W] !TimeStep
48,1,ZN001:WALL003,Surface Outside Face Thermal Radiation to Sky Heat Transfer Coefficient [W/m2-K] !TimeStep
49,1,ZN001:WALL003,Surface Outside Face Thermal Radiation to Ground Heat Transfer Coefficient [W/m2-K] !TimeStep
50,1,ZN001:WALL003,Surface Outside Face Thermal Radiation to Air Heat Transfer Rate [W] !TimeStep
51,1,ZN001:WALL003,Surface Outside Face Solar Radiation Heat Gain Rate [W] !TimeStep
52,1,ZN001:WALL004,Surface Inside Face Temperature [C] !TimeStep
53,1,ZN001:WALL004,Surface Outside Face Temperature [C] !TimeStep
54,1,ZN001:WALL004,Surface Outside Face Outdoor Air Drybulb Temperature [C] !TimeStep
55,1,ZN001:WALL004,Surface Outside Face Convection Heat Transfer Coefficient [W/m2-K] !TimeStep
56,1,ZN001:WALL004,Surface Outside Face Net Thermal Radiation Heat Gain Rate [W] !TimeStep
57,1,ZN001:WALL004,Surface Outside Face Thermal Radiation to Sky Heat Transfer Coefficient [W/m2-K] !TimeStep
58,1,ZN001:WALL004,Surface Outside Face Thermal Radiation to Ground Heat Transfer Coefficient [W/m2-K] !TimeStep
59,1,ZN001:WALL004,Surface Outside Face Thermal Radiation to Air Heat Transfer Rate [W] !TimeStep
60,1,ZN001:WALL004,Surface Outside Face Solar Radiation Heat Gain Rate [W] !TimeStep
61,1,ZN001:FLR001,Surface Inside Face Temperature [C] !TimeStep
62,1,ZN001:FLR001,Surface Outside Face Temperature [C] !TimeStep
63,1,ZN001:ROOF001,Surface Inside Face Temperature [C] !TimeStep
64,1,ZN001:ROOF001,Surface Outside Face Temperature [C] !TimeStep
65,1,ZN001:ROOF001,Surface Outside Face Outdoor Air Drybulb Temperature [C] !TimeStep
66,1,ZN001:ROOF001,Surface Outside Face Convection Heat Transfer Coefficient [W/m2-K] !TimeStep
67,1,ZN001:ROOF001,Surface Outside Face Net Thermal Radiation Heat Gain Rate [W] !TimeStep
68,1,ZN001:ROOF001,Surface Outside Face Thermal Radiation to Sky Heat Transfer Coefficient [W/m2-K] !TimeStep
69,1,ZN001:ROOF001,Surface Outside Face Thermal Radiation to Ground Heat Transfer Coefficient [W/m2-K] !TimeStep
70,1,ZN001:ROOF001,Surface Outside Face Thermal Radiation to Air Heat Transfer Rate [W] !TimeStep
71,1,ZN001:ROOF001,Surface Outside Face Solar Radiation Heat Gain Rate [W] !TimeStep
72,1,ZN001:WALL001:WIN001,Surface Inside Face Temperature [C] !TimeStep
73,1,ZN001:WALL001:WIN001,Surface Outside Face Temperature [C] !TimeStep
74,1,ZN001:WALL001:WIN001,Surface Outside Face Outdoor Air Drybulb Temperature [C] !TimeStep
75,1,ZN001:WALL001:WIN001,Surface Outside Face Convection Heat Transfer Coefficient [W/m2-K] !TimeStep
76,1,ZN001:WALL001:WIN001,Surface Outside Face Net Thermal Radiation Heat Gain Rate [W] !TimeStep
77,1,ZN001:WALL001:WIN001,Surface Outside Face Thermal Radiation to Sky Heat Transfer Coefficient [W/m2-K] !TimeStep
78,1,ZN001:WALL001:WIN001,Surface Outside Face Thermal Radiation to Ground Heat Transfer Coefficient [W/m2-K] !TimeStep
79,1,ZN001:WALL001:WIN001,Surface Outside Face Thermal Radiation to Air Heat Transfer Rate [W] !TimeStep
80,1,ZONE ONE,Zone Mean Air Temperature [C] !TimeStep
81,1,ZONE ONE,Zone Air Heat Balance Internal Convective Heat Gain Rate [W] !TimeStep
82,1,ZONE ONE,Zone Air Heat Balance Surface Convection Rate [W] !TimeStep
83,1,ZONE ONE,Zone Air Heat Balance Interzone Air Transfer Rate [W] !TimeStep
84,1,ZONE ONE,Zone Air Heat Balance Outdoor Air Transfer Rate [W] !TimeStep
85,1,ZONE ONE,Zone Air Heat Balance System Air Transfer Rate [W] !TimeStep
86,1,ZONE ONE,Zone Air Heat Balance Air Energy Storage Rate [W] !TimeStep
End of Data Dictionary
1,RUN PERIOD 1,  55.95,  -3.37,   0.00,  41.10
2,1, 1, 1, 0, 1, 0.00,15.00,Sunday
7,2.125
8,-5.260499215095706
9,0.0
10,0.0
11,18.89
12,0.0
13,0.0
14,0.0
15,0.0
16,0.0
17,0.0
18,0.0
19,0.0
20,0.0
21,0.0
22,0.0
23,0.0
24,-108.82274224841439
25,5.163905525845776
26,1.9109222641844568
27,2.119891003043213
28,1000.0
29,-582.1428387607519
30,1.4432167017711524
31,2.125041426727632
32,-7.656024751211065
33,0.0
34,5.154200011473974
35,1.910917795259878
36,2.119891003043213
37,1000.0
38,-689.0879024177308
39,1.443216666158061
40,2.1250413754517887
41,-9.062718807999534
42,0.0
43,5.15420001147397
44,1.9109177952598764
45,2.119891003043213
46,1000.0
47,-689.0879024177303
48,1.443216666158061
49,2.1250413754517887
50,-9.062718807999602
51,0.0
52,5.154200011473939
53,1.9109177952598764
54,2.119891003043213
55,1000.0
56,-689.0879024177303
57,1.443216666158061
58,2.1250413754517887
59,-9.062718807999602
60,0.0
61,5.74957854669084
62,5.7700845129911915
63,5.317301053062788
64,1.8760279435962544
65,2.105032019075771
66,1000.0
67,-6765.001387438115
68,4.081417601815586
69,0.0
70,0.0
71,0.0
72,3.5949238623556994
73,1.9085116100368964
74,2.125
75,1000.0
76,-94.22067706329217
77,1.346887475940124
78,1.9832620072312728
79,1.23095794790928
80,5.409337586275091
81,0.0
82,-19.205559792633508
83,0.0
84,0.0
85,0.0
86,-20.468521318383413
2,1, 1, 1, 0, 1,15.00,30.00,Sunday
7,2.25
8,-8.293258983490432
9,0.0
10,0.0
11,18.89
12,0.0
13,0.0
14,0.0
15,0.0
16,0.0
17,0.0
18,0.0
19,0.0
20,0.0
21,0.0
22,0.0
23,0.0
24,-105.0762356659073
25,5.160739066432216
26,2.0149788471687313
27,2.244891003043213
28,1000.0
29,-831.874710344998
30,1.4202516591941807
31,2.127698784551804
32,-8.433865786760776
33,0.0
34,5.151319292235006
35,2.0149744798246156
36,2.244891003043213
37,1000.0
38,-984.6984406467006
39,1.4202516234919156
40,2.127698732750959
41,-9.983454062847429
42,0.0
43,5.151319292235044
44,2.0149744798246156
45,2.244891003043213
46,1000.0
47,-984.6984406467006
48,1.4202516234919156
49,2.127698732750959
50,-9.983454062847429
51,0.0
52,5.151319292235034
53,2.0149744798246156
54,2.244891003043213
55,1000.0
56,-984.6984406467006
57,1.4202516234919156
58,2.127698732750959
59,-9.983454062847429
60,0.0
61,5.729672580555183
62,5.74957854669084
63,5.309305746410455
64,1.972252807065347
65,2.230032019075771
66,1000.0
67,-9575.81161010248
68,4.016289901230596
69,0.0
70,0.0
71,0.0
72,3.642152506876471
73,2.01413801198845
74,2.25
75,1000.0
76,-133.41147624631083
77,1.3255502405384465
78,1.9858814363733976
79,1.342682148608668
80,5.3970756023153355
81,0.0
82,-16.559096058822963
83,0.0
84,0.0
85,0.0
86,-18.350618588223313
2,1, 1, 1, 0, 1,30.00,45.00,Sunday
7,2.375
8,-11.433930583453161
9,0.0
10,0.0
11,18.89
12,0.0
13,0.0
14,0.0
15,0.0
16,0.0
17,0.0
18,0.0
19,0.0
20,0.0
21,0.0
22,0.0
23,0.0
24,-126.08337862392045
25,4.794075177828119
26,0.06960327083003659
27,2.369891003043213
28,3.3919536522462783
29,-572.2415238882122
30,1.3968001028107317
31,2.1303561352919225
32,-84.48682326184647
33,0.0
34,4.785611592464329
35,0.0693973471012766
36,2.369891003043213
37,3.391953554847225
38,-677.3093447699921
39,1.3968000681686008
40,2.1303560846277856
41,-100.01698218751184
42,0.0
43,4.765100855183564
44,-0.21005868923034315
45,2.369891003043213
46,2.54403631844879
47,-596.4797715006505
48,1.3968000681686008
49,2.1303560846277856
50,-112.16670028639876
51,0.0
52,4.765100855183585
53,-0.21005868923034263
54,2.369891003043213
55,2.54403631844879
56,-596.4797715006509
57,1.3968000681686008
58,2.1303560846277856
59,-112.16670028639874
60,0.0
61,5.683511624506005
62,5.729672580555183
63,4.877019593113542
64,-5.326894953309508
65,2.355032019075771
66,2.9237878994374324
67,-5602.401954451627
68,3.949788827722839
69,0.0
70,0.0
71,0.0
72,3.309746344010591
73,1.3713722819211966
74,2.375
75,2.2920225112167265
76,-137.7097975147055
77,1.3036738710343951
78,1.9883786537710524
79,5.703973738204475
80,5.3378377972196205
81,0.0
82,-147.9402100576545
83,0.0
84,0.0
85,0.0
86,-88.66939680559078
2,1, 1, 1, 0, 1,45.00,60.00,Sunday
7,2.5
8,-14.691922030337082
9,0.0
10,0.0
11,18.89
12,0.0
13,0.0
14,0.0
15,0.0
16,0.0
17,0.0
18,0.0
19,0.0
20,0.0
21,0.0
22,0.0
23,0.0
24,-138.8329504589952
25,4.64102603959667
26,-1.0757082686138153
27,2.494891003043213
28,1.7596445760007353
29,-513.6294001961452
30,1.3567740648964992
31,2.1093395210429247
32,-129.8500759722241
33,0.0
34,4.630929318093576
35,-1.0762584526733239
36,2.494891003043213
37,1.7596943765958852
38,-607.8317544196608
39,1.356772460076008
40,2.109337153914092
41,-153.72855116248013
42,0.0
43,4.635572880310542
44,-1.0315086165954384
45,2.494891003043213
46,1.8248349743958139
47,-619.5150587831397
48,1.354596101701833
49,2.1061269419549404
50,-151.57116032590295
51,0.0
52,4.635572880310539
53,-1.0315086165954388
54,2.494891003043213
55,1.8248349743958139
56,-619.5150587831396
57,1.354596101701833
58,2.1061269419549404
59,-151.57116032590298
60,0.0
61,5.641838447472298
62,5.683511624506005
63,4.711603813489769
64,-9.25849489746429
65,2.480032019075771
66,1.5074058279847615
67,-4694.695186232728
68,3.720177131861099
69,0.0
70,0.0
71,0.0
72,2.906464155745425
73,0.7714007034935548
74,2.5
75,1.3636013917383598
76,-149.28263208000487
77,1.275821974610568
78,1.9827829126347518
79,9.79888163021544
80,5.214154207732845
81,0.0
82,-242.07910946667914
83,0.0
84,0.0
85,0.0
86,-185.21333888383094
2,1, 1, 1, 0, 2, 0.00,15.00,Sunday
7,2.45
8,-13.865862325871092
9,0.0
10,0.0
11,18.89
12,0.0
13,0.0
14,0.0
15,0.0
16,0.0
17,0.0
18,0.0
19,0.0
20,0.0
21,0.0
22,0.0
23,0.0
24,-130.53250405976857
25,4.645321181136671
26,-0.6158072176363362
27,2.4448910030432134
28,2.392366211870344
29,-567.3298575648628
30,1.354072380929564
31,2.095634096014087
32,-110.58356155321299
33,0.0
34,4.635245877987492
35,-0.6164150619279438
36,2.4448910030432134
37,2.392451396706375
38,-671.3806181949492
39,1.3540681089634363
40,2.0956278074904535
41,-130.92464652600077
42,0.0
43,4.625146307441704
44,-0.7562605017319965
45,2.4448910030432134
46,2.099635644395242
47,-631.955484429965
48,1.3544156124878524
49,2.096139346695883
50,-136.93891570912493
51,0.0
52,4.625146307441705
53,-0.7562605017319964
54,2.4448910030432134
55,2.099635644395242
56,-631.955484429965
57,1.3544156124878524
58,2.096139346695883
59,-136.93891570912493
60,0.0
61,5.606184252563358
62,5.641838447472298
63,4.718537745129247
64,-7.878439979215611
65,2.4300320190757714
66,1.8968504706543445
67,-5081.110638943648
68,3.6538340920968055
69,0.0
70,0.0
71,0.0
72,2.918534765140123
73,0.9073530968591967
74,2.45
75,1.8234881024217777
76,-146.3098242949314
77,1.2772487464604447
78,1.9757739628976292
79,8.748862460846278
80,5.0936166370450415
81,0.0
82,-144.4076439661135
83,0.0
84,0.0
85,0.0
86,-180.58044303245083
2,1, 1, 1, 0, 2,15.00,30.00,Sunday
7,2.4
8,-13.047623295940127
9,0.0
10,0.0
11,18.89
12,0.0
13,0.0
14,0.0
15,0.0
16,0.0
17,0.0
18,0.0
19,0.0
20,0.0
21,0.0
22,0.0
23,0.0
24,-125.23118773704286
25,4.611045388432178
26,-0.347306659298102
27,2.394891003043213
28,2.808625706795567
29,-580.6172127052765
30,1.3638200316249356
31,2.1003196137868074
32,-99.2975997088646
33,0.0
34,4.601258974696187
35,-0.3479037566790807
36,2.394891003043213
37,2.808705129631103
38,-687.111135381674
39,1.3638152915437889
40,2.1003126514819552
41,-117.5649233413184
42,0.0
43,4.587662078987971
44,-0.5473133707350786
45,2.394891003043213
46,2.3134056599148503
47,-629.9075704036484
48,1.3627251330229526
49,2.098711396595525
50,-126.01610824696098
51,0.0
52,4.587662078987972
53,-0.5473133707350788
54,2.394891003043213
55,2.3134056599148503
56,-629.9075704036483
57,1.3627251330229526
58,2.098711396595525
59,-126.01610824696101
60,0.0
61,5.568343329056223
62,5.606184252563358
63,4.689985831386206
64,-6.8913304296138325
65,2.380032019075771
66,2.2276000199177965
67,-5290.6546331928685
68,3.7001574651481124
69,0.0
70,0.0
71,0.0
72,2.9514088542041463
73,1.0192044361039052
74,2.4
75,2.0887514088690566
76,-142.41734282123863
77,1.2840268971221525
78,1.976697354552447
79,7.833581411221378
80,5.011954005110092
81,0.0
82,-75.37898188886066
83,0.0
84,0.0
85,0.0
86,-122.37681156400865
2,1, 1, 1, 0, 2,30.00,45.00,Sunday
7,2.3499999999999996
8,-12.237034327235847
9,0.0
10,0.0
11,18.89
12,0.0
13,0.0
14,0.0
15,0.0
16,0.0
17,0.0
18,0.0
19,0.0
20,0.0
21,0.0
22,0.0
23,0.0
24,-120.29899778412789
25,4.601008893844829
26,-0.09114409092928547
27,2.344891003043213
28,3.2741832563507836
29,-590.4727303888621
30,1.37205939486024
31,2.1028198388686064
32,-88.31616708489024
33,0.0
34,4.591336664894182
35,-0.09169809950751011
36,2.344891003043213
37,3.2742452762711767
38,-698.7890539190889
39,1.3720547230353568
40,2.102812991548957
41,-104.5643048512433
42,0.0
43,4.576969404579489
44,-0.3027654288187506
45,2.344891003043213
46,2.6510559893311294
47,-637.8770045357727
48,1.3704952735963862
49,2.1005273395061757
50,-113.49859176968347
51,0.0
52,4.57696940457949
53,-0.3027654288187506
54,2.344891003043213
55,2.6510559893311294
56,-637.8770045357727
57,1.3704952735963862
58,2.1005273395061757
59,-113.49859176968347
60,0.0
61,5.532129538778392
62,5.568343329056223
63,4.688591715640717
64,-5.808262851120518
65,2.330032019075771
66,2.7150175219970407
67,-5581.761485804852
68,3.7382931294953474
69,0.0
70,0.0
71,0.0
72,2.9787540628715874
73,1.1216713748384564
74,2.3499999999999996
75,2.3613560584915607
76,-138.1682044995241
77,1.2906018620995259
78,1.9773617923293594
79,6.970586554031873
80,4.967483391577027
81,0.0
82,-39.61544765597621
83,0.0
84,0.0
85,0.0
86,-66.65278793380897
2,1, 1, 1, 0, 2,45.00,60.00,Sunday
7,2.3
8,-11.433930583453161
9,0.0
10,0.0
11,18.89
12,0.0
13,0.0
14,0.0
15,0.0
16,0.0
17,0.0
18,0.0
19,0.0
20,0.0
21,0.0
22,0.0
23,0.0
24,-116.2488143375569
25,4.601085366529611
26,0.13086414890576673
27,2.294891003043213
28,3.742030339782346
29,-592.2104497748885
30,1.3801809987006546
31,2.1051818253498737
32,-78.54288761378378
33,0.0
34,4.591579066593947
35,0.13034720297448937
36,2.294891003043213
37,3.7420741084732216
38,-700.856360587115
39,1.380176649904444
40,2.105175465008942
41,-92.99405461119937
42,0.0
43,4.578508286289347
44,-0.0617909872978297
45,2.294891003043213
46,3.0637729575951975
47,-645.1438139689924
48,1.3785207073991752
49,2.1027535364170324
50,-101.13229447639277
51,0.0
52,4.578508286289348
53,-0.0617909872978297
54,2.294891003043213
55,3.0637729575951975
56,-645.1438139689924
57,1.3785207073991752
58,2.1027535364170324
59,-101.13229447639277
60,0.0
61,5.49800612409816
62,5.532129538778392
63,4.697656351982519
64,-4.807250590297931
65,2.280032019075771
66,3.284866032518857
67,-5815.63323351911
68,3.778601363379474
69,0.0
70,0.0
71,0.0
72,3.0167686228028288
73,1.2221597303702083
74,2.3
75,2.6279704945259397
76,-133.84655792956352
77,1.2970812904967144
78,1.977925568731303
79,6.118265270312793
80,4.945907054830128
81,0.0
82,-22.324872034728713
83,0.0
84,0.0
85,0.0
86,-32.34123528917508
2,1, 1, 1, 0, 3, 0.00,15.00,Sunday
7,2.25
8,-10.88223654567247
9,0.0
10,0.0
11,18.89
12,0.0
13,0.0
14,0.0
15,0.0
16,0.0
17,0.0
18,0.0
19,0.0
20,0.0
21,0.0
22,0.0
23,0.0
24,-114.23180553463177
25,4.591964195318097
26,0.23006346593275903
27,2.244891003043213
28,3.9662711874541294
29,-582.9490238699507
30,1.3861427239102582
31,2.1071543797778935
32,-73.19625125448984
33,0.0
34,4.58259325886031
35,0.22957630726886447
36,2.244891003043213
37,3.9663055155589166
38,-689.9019208305925
39,1.3861386560585325
40,2.1071484392486104
41,-86.66395570409371
42,0.0
43,4.570545102256112
44,0.05307941312361292
45,2.244891003043213
46,3.2778241886433035
47,-638.6373373920572
48,1.3846274415943483
49,2.1049415006537306
50,-94.15507969532393
51,0.0
52,4.570545102256112
53,0.05307941312361292
54,2.244891003043213
55,3.2778241886433035
56,-638.6373373920572
57,1.3846274415943483
58,2.1049415006537306
59,-94.15507969532393
60,0.0
61,5.464868581323725
62,5.49800612409816
63,4.692876601865254
64,-4.304226092517765
65,2.230032019075771
66,3.583626246389735
67,-5824.002619530453
68,3.812036658180981
69,0.0
70,0.0
71,0.0
72,3.0357224328381562
73,1.273411744558416
74,2.25
75,2.742381055969055
76,-130.53804585832992
77,1.3017698602246304
78,1.9784684226432625
79,5.543551193317557
80,4.932488614284421
81,0.0
82,-21.362058752545106
83,0.0
84,0.0
85,0.0
86,-20.11415971551671
2,1, 1, 1, 0, 3,15.00,30.00,Sunday
7,2.2
8,-10.334002252279845
9,0.0
10,0.0
11,18.89
12,0.0
13,0.0
14,0.0
15,0.0
16,0.0
17,0.0
18,0.0
19,0.0
20,0.0
21,0.0
22,0.0
23,0.0
24,-112.23505924842159
25,4.586171149694294
26,0.3248282119319387
27,2.1948910030432134
28,4.198551222946296
29,-572.2113861077843
30,1.3911277147530268
31,2.1077170056221215
32,-67.95526257033832
33,0.0
34,4.57692170626515
35,0.32436237264466
36,2.1948910030432134
37,4.198577467245307
38,-677.1977375828004
39,1.3911238742456864
40,2.107711405376322
41,-80.4592557626197
42,0.0
43,4.566236543855992
44,0.16773208799943798
45,2.1948910030432134
46,3.519159547443804
47,-631.6290151658061
48,1.3897330740690288
49,2.1056833171826583
50,-87.11267652094102
51,0.0
52,4.566236543855992
53,0.16773208799943798
54,2.1948910030432134
55,3.519159547443804
56,-631.6290151658061
57,1.3897330740690288
58,2.1056833171826583
59,-87.11267652094102
60,0.0
61,5.433070780915423
62,5.464868581323725
63,4.691531228980417
64,-3.8191005240079003
65,2.1800320190757714
66,3.90251997735469
67,-5802.465372774573
68,3.8347296750505095
69,0.0
70,0.0
71,0.0
72,3.0523475234844
73,1.32156077579657
74,2.2
75,2.8645414893597883
76,-127.1102546726302
77,1.3060826167618165
78,1.9784806441874914
79,4.986360084659223
80,4.919675164647062
81,0.0
82,-22.52776275031574
83,0.0
84,0.0
85,0.0
86,-19.20816714235686
2,1, 1, 1, 0, 3,30.00,45.00,Sunday
7,2.1500000000000004
8,-9.78917749753515
9,0.0
10,0.0
11,18.89
12,0.0
13,0.0
14,0.0
15,0.0
16,0.0
17,0.0
18,0.0
19,0.0
20,0.0
21,0.0
22,0.0
23,0.0
24,-111.54461475311867
25,4.569558487638156
26,0.26955064605518075
27,2.1448910030432136
28,3.759387146301509
29,-525.0748973523944
30,1.3960654260074445
31,2.108229047501239
32,-68.16359677742847
33,0.0
34,4.570683979000422
35,0.4111234696390954
36,2.1448910030432136
37,4.429321680299485
38,-662.1943939673181
39,1.3960617469320564
40,2.108223690521242
41,-74.5947153269485
42,0.0
43,4.571531431991285
44,0.415318721689906
45,2.1448910030432136
46,4.435985106547407
47,-662.8012104081308
48,1.3948252034393547
49,2.1064231878010005
50,-74.35066358530516
51,0.0
52,4.56138343935034
53,0.2748417465834874
54,2.1448910030432136
55,3.7711128631795496
56,-622.4919949369516
57,1.3948252034393547
58,2.1064231878010005
59,-80.3894723880493
60,0.0
61,5.402376101240283
62,5.433070780915423
63,4.689254029988392
64,-3.370920117996556
65,2.1300320190757716
66,4.229739586774066
67,-5749.658443339873
68,3.8570474663786842
69,0.0
70,0.0
71,0.0
72,3.0505176335653914
73,1.3301953358028413
74,2.1500000000000004
75,2.537670065046377
76,-122.1580033242578
77,1.310359687270128
78,1.9784595333979969
79,4.652475924500656
80,4.905720065336006
81,0.0
82,-22.648048877476885
83,0.0
84,0.0
85,0.0
86,-20.920621742530738
2,1, 1, 1, 0, 3,45.00,60.00,Sunday
7,2.1
8,-9.247713211163784
9,0.0
10,0.0
11,18.89
12,0.0
13,0.0
14,0.0
15,0.0
16,0.0
17,0.0
18,0.0
19,0.0
20,0.0
21,0.0
22,0.0
23,0.0
24,-109.53164384473563
25,4.564698860006393
26,0.37529642812660385
27,2.0948910030432133
28,4.032947992638383
29,-516.5343261540283
30,1.3998042353352687
31,2.1070160775851488
32,-62.46669402619869
33,0.0
34,4.56353320267352
35,0.49071102013296897
36,2.0948910030432133
37,4.65853445241803
38,-645.1154658876268
39,1.4009239128157651
40,2.108644039250091
41,-69.0330196871184
42,0.0
43,4.563475405513888
44,0.4905149018566309
45,2.0948910030432133
46,4.658415595560009
47,-645.0745976103027
48,1.4009571043771514
49,2.1086922980176674
50,-69.04303938074673
51,0.0
52,4.555602477834978
53,0.37454186915597615
54,2.0948910030432133
55,4.032632101929788
56,-611.2294471770308
57,1.399846067722153
58,2.1070769003822813
59,-73.9771310564297
60,0.0
61,5.372648513151733
62,5.402376101240283
63,4.685790208905272
64,-2.957151296012283
65,2.0800320190757713
66,4.563612593963031
67,-5666.7068650393485
68,3.8785676622065974
69,0.0
70,0.0
71,0.0
72,3.0692573083686057
73,1.3813220940455722
74,2.1
75,2.6819443263351297
76,-118.84493325129924
77,1.3143310106626436
78,1.978012369636904
79,4.078594130908998
80,4.891196457375399
81,0.0
82,-21.912625391008913
83,0.0
84,0.0
85,0.0
86,-21.77403206382107
2,1, 1, 1, 0, 4, 0.00,15.00,Sunday
7,2.075
8,-8.828866862773395
9,0.0
10,0.0
11,18.89
12,0.0
13,0.0
14,0.0
15,0.0
16,0.0
17,0.0
18,0.0
19,0.0
20,0.0
21,0.0
22,0.0
23,0.0
24,-108.32735262332119
25,4.540124382955314
26,0.36112224781058605
27,2.0698910030432134
28,3.7501478384160283
29,-484.6739198120693
30,1.4038788666009379
31,2.1079432412605383
32,-62.100745450322066
33,0.0
34,4.540110467198466
35,0.4880081076417407
36,2.0698910030432134
37,4.4199704161079705
38,-610.624633872294
39,1.4047930190580313
40,2.10927092375238
41,-68.09374211669935
42,0.0
43,4.540114507723313
44,0.48802111601561826
45,2.0698910030432134
46,4.419977464701327
47,-610.627692627199
48,1.4047914652418607
49,2.1092686670556775
50,-68.09310930564712
51,0.0
52,4.531306893303554
53,0.3606810561541961
54,2.0698910030432134
55,3.7502029824651952
56,-573.5847123689107
57,1.4038728917593493
58,2.1079345635721736
59,-73.52804893083777
60,0.0
61,5.342551183964517
62,5.372648513151733
63,4.660010398232437
64,-2.994081444401049
65,2.0550320190757714
66,4.225264510846611
67,-5280.767307603761
68,3.8967469858655166
69,0.0
70,0.0
71,0.0
72,3.075278904294919
73,1.403726226223057
74,2.075
75,2.5041730663119766
76,-115.24883714879088
77,1.3177404286578023
78,1.9782936775059083
79,3.809514489364145
80,4.874107789542246
81,0.0
82,-28.540156173455387
83,0.0
84,0.0
85,0.0
86,-25.621186738636517
2,1, 1, 1, 0, 4,15.00,30.00,Sunday
7,2.05
8,-8.412002228312929
9,0.0
10,0.0
11,18.89
12,0.0
13,0.0
14,0.0
15,0.0
16,0.0
17,0.0
18,0.0
19,0.0
20,0.0
21,0.0
22,0.0
23,0.0
24,-106.86476428128793
25,4.517379506890003
26,0.3521363174683778
27,2.044891003043213
28,3.477900273039087
29,-453.7184570472034
30,1.4069962792691648
31,2.1074915706603488
32,-61.50557416858566
33,0.0
34,4.5180308380730905
35,0.48702964538959953
36,2.044891003043213
37,4.1777993930844675
38,-576.324621291399
39,1.408002276076471
40,2.1089510652421297
41,-67.04954162563507
42,0.0
43,4.5180305530739515
44,0.48702870235157136
45,2.044891003043213
46,4.177798780386809
47,-576.3243925218361
48,1.4080023792438738
49,2.1089512149160763
50,-67.04958697206331
51,0.0
52,4.508700110881726
53,0.35166827858830085
54,2.044891003043213
55,3.4779398730556466
56,-536.9356923067727
57,1.4069927824427755
58,2.1074864974588157
59,-72.8248157970202
60,0.0
61,5.312846960822584
62,5.342551183964517
63,4.63597590677082
64,-3.021658284953381
65,2.030032019075771
66,3.8888097316784913
67,-4888.847998190298
68,3.9049917739114437
69,0.0
70,0.0
71,0.0
72,3.0750001959544306
73,1.4261989886560968
74,2.05
75,2.332412945682402
76,-111.65543197501235
77,1.3209290567854317
78,1.9782652382701922
79,3.540054489590967
80,4.853471828842909
81,0.0
82,-34.08980694599606
83,0.0
84,0.0
85,0.0
86,-30.941970084690055
2,1, 1, 1, 0, 4,30.00,45.00,Sunday
7,2.025
8,-7.997097567027481
9,0.0
10,0.0
11,18.89
12,0.0
13,0.0
14,0.0
15,0.0
16,0.0
17,0.0
18,0.0
19,0.0
20,0.0
21,0.0
22,0.0
23,0.0
24,-105.33964538028728
25,4.493468292000154
26,0.3448186529900252
27,2.019891003043213
28,3.2097103341825006
29,-423.18255716145654
30,1.4101460945448316
31,2.1070996182277866
32,-60.851774126939766
33,0.0
34,4.494703637173157
35,0.4860350988827108
36,2.019891003043213
37,3.929213203117306
38,-542.0247045592421
39,1.411216638610965
40,2.1086510860680305
41,-66.0069691786115
42,0.0
43,4.494703657640168
44,0.4860351694543765
45,2.019891003043213
46,3.9292132595912146
47,-542.024721982059
48,1.411216631124305
49,2.1086510752182046
50,-66.00696580204439
51,0.0
52,4.484945860242483
53,0.3443461086718012
54,2.019891003043213
55,3.2097610583582004
56,-500.7886253041921
57,1.4101423813230816
58,2.107094236876831
59,-72.05108640211449
60,0.0
61,5.2833757862571735
62,5.312846960822584
63,4.610783330802029
64,-3.048126773630827
65,2.005032019075771
66,3.554908818751487
67,-4498.223367882252
68,3.9134175882257365
69,0.0
70,0.0
71,0.0
72,3.075869190317974
73,1.4510197049127669
74,2.025
75,2.159984116588574
76,-108.15276849649531
77,1.3241105535879483
78,1.9782375690641012
79,3.257319392883263
80,4.830037993058852
81,0.0
82,-36.86019046766857
83,0.0
84,0.0
85,0.0
86,-35.140121736080985
2,1, 1, 1, 0, 4,45.00,60.00,Sunday
7,2.0
8,-7.584131510631607
9,0.0
10,0.0
11,18.89
12,0.0
13,0.0
14,0.0
15,0.0
16,0.0
17,0.0
18,0.0
19,0.0
20,0.0
21,0.0
22,0.0
23,0.0
24,-103.72333154389266
25,4.468908354715272
26,0.3400204996843992
27,1.9948910030432134
28,2.9472049309647073
29,-393.26360372062555
30,1.413300559779444
31,2.106726897182656
32,-60.10725036202914
33,0.0
34,4.470568097685049
35,0.4852263722173175
36,1.9948910030432134
37,3.6737687814888726
38,-507.77703940634285
39,1.414422396557256
40,2.1083509583309596
41,-64.9566907620389
42,0.0
43,4.47056809618609
44,0.4852263667851842
45,1.9948910030432134
46,3.6737687762163995
47,-507.7770380438752
48,1.4144223971180794
49,2.108350959142849
50,-64.95669102078227
51,0.0
52,4.460543247208426
53,0.3395419352388156
54,1.9948910030432134
55,2.9472659976305984
56,-465.37147425403083
57,1.4132968071547916
58,2.106721464553872
59,-71.17004071491276
60,0.0
61,5.254068406573696
62,5.2833757862571735
63,4.584893648492326
64,-3.0720394877232513
65,1.980032019075771
66,3.224922085731884
67,-4109.964751993125
68,3.921843099092939
69,0.0
70,0.0
71,0.0
72,3.0767710080292545
73,1.4772962730118024
74,1.9999999999999998
75,1.9862100250109658
76,-104.70644877498626
77,1.3273019802833512
78,1.9782352593543715
79,2.966346658176703
80,4.804993247639486
81,0.0
82,-38.170268894260985
83,0.0
84,0.0
85,0.0
86,-37.55913922748392
2,1, 1, 1, 0, 5, 0.00,15.00,Sunday
7,2.025
8,-7.819875967085466
9,0.0
10,0.0
11,18.89
12,0.0
13,0.0
14,0.0
15,0.0
16,0.0
17,0.0
18,0.0
19,0.0
20,0.0
21,0.0
22,0.0
23,0.0
24,-103.92059648145184
25,4.440255280317761
26,0.31566310464991926
27,2.019891003043213
28,2.951050209646609
29,-402.0085592189568
30,1.4114277839695488
31,2.106960318644196
32,-61.906839553391464
33,0.0
34,4.44217061825893
35,0.46480107652520153
36,2.019891003043213
37,3.6757014602238245
38,-519.2673177252668
39,1.412580631425902
40,2.1086303391148413
41,-66.92008201864401
42,0.0
43,4.442170618370294
44,0.46480107693185085
45,2.019891003043213
46,3.675701460631532