Program Version,EnergyPlus, Version 23.2.0-7636e6b3e9, YMD=2026.07.22 10:24
1,5,Environment Title[],Latitude[deg],Longitude[deg],Time Zone[],Elevation[m]
2,8,Day of Simulation[],Month[],Day of Month[],DST Indicator[1=yes 0=no],Hour[],StartMinute[],EndMinute[],DayType
3,5,Cumulative Day of Simulation[],Month[],Day of Month[],DST Indicator[1=yes 0=no],DayType  ! When Daily Report Variables Requested
4,2,Cumulative Days of Simulation[],Month[]  ! When Monthly Report Variables Requested
5,1,Cumulative Days of Simulation[] ! When Run Period Report Variables Requested
6,1,Calendar Year of Simulation[] ! When Annual Report Variables Requested
7,1,Environment,Site Outdoor Air Drybulb Temperature [C] !TimeStep
8,1,Environment,Site Sky Temperature [C] !TimeStep
9,1,Environment,Site Diffuse Solar Radiation Rate per Area [W/m2] !TimeStep
10,1,Environment,Site Direct Solar Radiation Rate per Area [W/m2] !TimeStep
11,1,Environment,Site Ground Temperature [C] !TimeStep
12,1,ZONE ONE,Zone Total Internal Radiant Heating Rate [W] !TimeStep
13,1,ZONE ONE,Zone Total Internal Convective Heating Rate [W] !TimeStep
14,1,ZONE ONE,Zone Windows Total Transmitted Solar Radiation Rate [W] !TimeStep
15,1,ZN001:WALL001,Surface Outside Face Sunlit Fraction [] !TimeStep
16,1,ZN001:WALL001,Surface Outside Face Incident Solar Radiation Rate per Area [W/m2] !TimeStep
17,1,ZN001:WALL002,Surface Outside Face Incident Solar Radiation Rate per Area [W/m2] !TimeStep
18,1,ZN001:WALL003,Surface Outside Face Incident Solar Radiation Rate per Area [W/m2] !TimeStep
19,1,ZN001:WALL004,Surface Outside Face Incident Solar Radiation Rate per Area [W/m2] !TimeStep
20,1,ZN001:ROOF001,Surface Outside Face Incident Solar Radiation Rate per Area [W/m2] !TimeStep
21,1,ZN001:WALL001:WIN001,Surface Outside Face Sunlit Fraction [] !TimeStep
22,1,ZN001:WALL001:WIN001,Surface Outside Face Incident Solar Radiation Rate per Area [W/m2] !TimeStep
23,1,ZN001:WALL001:WIN001,Surface Window Transmitted Solar Radiation Rate [W] !TimeStep
24,1,ZN001:WALL001:WIN001,Surface Window Net Heat Transfer Rate [W] !TimeStep
25,1,ZN001:WALL001,Surface Inside Face Temperature [C] !TimeStep
26,1,ZN001:WALL001,Surface Outside Face Temperature [C] !TimeStep
27,1,ZN001:WALL001,Surface Outside Face Outdoor Air Drybulb Temperature [C] !TimeStep
28,1,ZN001:WALL001,Surface Outside Face Convection Heat Transfer Coefficient [W/m2-K] !TimeStep
29,1,ZN001:WALL001,Surface Outside Face Net Thermal Radiation Heat Gain Rate [W] !TimeStep
30,1,ZN001:WALL001,Surface Outside Face Thermal Radiation to Sky Heat Transfer Coefficient [W/m2-K] !TimeStep
31,1,ZN001:WALL001,Surface Outside Face Thermal Radiation to Ground Heat Transfer Coefficient [W/m2-K] !TimeStep
32,1,ZN001:WALL001,Surface Outside Face Thermal Radiation to Air Heat Transfer Rate [W] !TimeStep
33,1,ZN001:WALL001,Surface Outside Face Solar Radiation Heat Gain Rate [W] !TimeStep
34,1,ZN001:WALL002,Surface Inside Face Temperature [C] !TimeStep
35,1,ZN001:WALL002,Surface Outside Face Temperature [C] !TimeStep
36,1,ZN001:WALL002,Surface Outside Face Outdoor Air Drybulb Temperature [C] !TimeStep
37,1,ZN001:WALL002,Surface Outside Face Convection Heat Transfer Coefficient [W/m2-K] !TimeStep
38,1,ZN001:WALL002,Surface Outside Face Net Thermal Radiation Heat Gain Rate [W] !TimeStep
39,1,ZN001:WALL002,Surface Outside Face Thermal Radiation to Sky Heat Transfer Coefficient [W/m2-K] !TimeStep
40,1,ZN001:WALL002,Surface Outside Face Thermal Radiation to Ground Heat Transfer Coefficient [W/m2-K] !TimeStep
41,1,ZN001:WALL002,Surface Outside Face Thermal Radiation to Air Heat Transfer Rate [W] !TimeStep
42,1,ZN001:WALL002,Surface Outside Face Solar Radiation Heat Gain Rate [W] !TimeStep
43,1,ZN001:WALL003,Surface Inside Face Temperature [C] !TimeStep
44,1,ZN001:WALL003,Surface Outside Face Temperature [C] !TimeStep
45,1,ZN001:WALL003,Surface Outside Face Outdoor Air Drybulb Temperature [C] !TimeStep
46,1,ZN001:WALL003,Surface Outside Face Convection Heat Transfer Coefficient [W/m2-K] !TimeStep
47,1,ZN001:WALL003,Surface Outside Face Net Thermal Radiation Heat Gain Rate [W] !TimeStep
48,1,ZN001:WALL003,Surface Outside Face Thermal Radiation to Sky Heat Transfer Coefficient [W/m2-K] !TimeStep
49,1,ZN001:WALL003,Surface Outside Face Thermal Radiation to Ground Heat Transfer Coefficient [W/m2-K] !TimeStep
50,1,ZN001:WALL003,Surface Outside Face Thermal Radiation to Air Heat Transfer Rate [W] !TimeStep
51,1,ZN001:WALL003,Surface Outside Face Solar Radiation Heat Gain Rate [W] !TimeStep
52,1,ZN001:WALL004,Surface Inside Face Temperature [C] !TimeStep
53,1,ZN001:WALL004,Surface Outside Face Temperature [C] !TimeStep
54,1,ZN001:WALL004,Surface Outside Face Outdoor Air Drybulb Temperature [C] !TimeStep
55,1,ZN001:WALL004,Surface Outside Face Convection Heat Transfer Coefficient [W/m2-K] !TimeStep
56,1,ZN001:WALL004,Surface Outside Face Net Thermal Radiation Heat Gain Rate [W] !TimeStep
57,1,ZN001:WALL004,Surface Outside Face Thermal Radiation to Sky Heat Transfer Coefficient [W/m2-K] !TimeStep
58,1,ZN001:WALL004,Surface Outside Face Thermal Radiation to Ground Heat Transfer Coefficient [W/m2-K] !TimeStep
59,1,ZN001:WALL004,Surface Outside Face Thermal Radiation to Air Heat Transfer Rate [W] !TimeStep
60,1,ZN001:WALL004,Surface Outside Face Solar Radiation Heat Gain Rate [W] !TimeStep
61,1,ZN001:FLR001,Surface Inside Face Temperature [C] !TimeStep
62,1,ZN001:FLR001,Surface Outside Face Temperature [C] !TimeStep
63,1,ZN001:ROOF001,Surface Inside Face Temperature [C] !TimeStep
64,1,ZN001:ROOF001,Surface Outside Face Temperature [C] !TimeStep
65,1,ZN001:ROOF001,Surface Outside Face Outdoor Air Drybulb Temperature [C] !TimeStep
66,1,ZN001:ROOF001,Surface Outside Face Convection Heat Transfer Coefficient [W/m2-K] !TimeStep
67,1,ZN001:ROOF001,Surface Outside Face Net Thermal Radiation Heat Gain Rate [W] !TimeStep
68,1,ZN001:ROOF001,Surface Outside Face Thermal Radiation to Sky Heat Transfer Coefficient [W/m2-K] !TimeStep
69,1,ZN001:ROOF001,Surface Outside Face Thermal Radiation to Ground Heat Transfer Coefficient [W/m2-K] !TimeStep
70,1,ZN001:ROOF001,Surface Outside Face Thermal Radiation to Air Heat Transfer Rate [W] !TimeStep
71,1,ZN001:ROOF001,Surface Outside Face Solar Radiation Heat Gain Rate [W] !TimeStep
72,1,ZN001:WALL001:WIN001,Surface Inside Face Temperature [C] !TimeStep
73,1,ZN001:WALL001:WIN001,Surface Outside Face Temperature [C] !TimeStep
74,1,ZN001:WALL001:WIN001,Surface Outside Face Outdoor Air Drybulb Temperature [C] !TimeStep
75,1,ZN001:WALL001:WIN001,Surface Outside Face Convection Heat Transfer Coefficient [W/m2-K] !TimeStep
76,1,ZN001:WALL001:WIN001,Surface Outside Face Net Thermal Radiation Heat Gain Rate [W] !TimeStep
77,1,ZN001:WALL001:WIN001,Surface Outside Face Thermal Radiation to Sky Heat Transfer Coefficient [W/m2-K] !TimeStep
78,1,ZN001:WALL001:WIN001,Surface Outside Face Thermal Radiation to Ground Heat Transfer Coefficient [W/m2-K] !TimeStep
79,1,ZN001:WALL001:WIN001,Surface Outside Face Thermal Radiation to Air Heat Transfer Rate [W] !TimeStep
80,1,ZONE ONE,Zone Mean Air Temperature [C] !TimeStep
81,1,ZONE ONE,Zone Air Heat Balance Internal Convective Heat Gain Rate [W] !TimeStep
82,1,ZONE ONE,Zone Air Heat Balance Surface Convection Rate [W] !TimeStep
83,1,ZONE ONE,Zone Air Heat Balance Interzone Air Transfer Rate [W] !TimeStep
84,1,ZONE ONE,Zone Air Heat Balance Outdoor Air Transfer Rate [W] !TimeStep
85,1,ZONE ONE,Zone Air Heat Balance System Air Transfer Rate [W] !TimeStep
86,1,ZONE ONE,Zone Air Heat Balance Air Energy Storage Rate [W] !TimeStep
End of Data Dictionary
1,RUN PERIOD 1,  55.95,  -3.37,   0.00,  41.10
2,1, 1, 1, 0, 1, 0.00,15.00,Sunday
7,2.125
8,-5.260499215095706
9,0.0
10,0.0
11,18.89
12,0.0
13,0.0
14,0.0
15,0.0
16,0.0
17,0.0
18,0.0
19,0.0
20,0.0
21,0.0
22,0.0
23,0.0
24,-108.82274224831143
25,5.1639055258399065
26,1.9109222641844537
27,2.119891003043213
28,1000.0
29,-582.1428387607511
30,1.4432167017711524
31,2.125041426727632
32,-7.656024751211179
33,0.0
34,5.154200011468119
35,1.9109177952598753
36,2.119891003043213
37,1000.0
38,-689.0879024177301
39,1.443216666158061
40,2.1250413754517887
41,-9.06271880799965
42,0.0
43,5.154200011468065
44,1.910917795259874
45,2.119891003043213
46,1000.0
47,-689.0879024177297
48,1.443216666158061
49,2.1250413754517887
50,-9.062718807999708
51,0.0
52,5.154200011468058
53,1.910917795259874
54,2.119891003043213
55,1000.0
56,-689.0879024177297
57,1.443216666158061
58,2.1250413754517887
59,-9.062718807999708
60,0.0
61,5.74957854668404
62,5.770084512984359
63,5.3173010530566485
64,1.8760279435962528
65,2.105032019075771
66,1000.0
67,-6765.001387438112
68,4.081417601815586
69,0.0
70,0.0
71,0.0
72,3.5949238623505835
73,1.9085116100368396
74,2.125
75,1000.0
76,-94.22067706328994
77,1.3468874759401253
78,1.9832620072312097
79,1.230957947909637
80,5.409337586268806
81,0.0
82,-19.20555979260958
83,0.0
84,0.0
85,0.0
86,-20.468521318355965
2,1, 1, 1, 0, 1,15.00,30.00,Sunday
7,2.25
8,-8.293258983490432
9,0.0
10,0.0
11,18.89
12,0.0
13,0.0
14,0.0
15,0.0
16,0.0
17,0.0
18,0.0
19,0.0
20,0.0
21,0.0
22,0.0
23,0.0
24,-105.07623566563198
25,5.160739066426426
26,2.014978847168729
27,2.244891003043213
28,1000.0
29,-831.8747103449975
30,1.4202516591941807
31,2.127698784551804
32,-8.433865786760858
33,0.0
34,5.151319292229274
35,2.014974479824613
36,2.244891003043213
37,1000.0
38,-984.6984406466997
39,1.4202516234919156
40,2.127698732750959
41,-9.983454062847544
42,0.0
43,5.151319292229275
44,2.014974479824613
45,2.244891003043213
46,1000.0
47,-984.6984406466997
48,1.4202516234919156
49,2.127698732750959
50,-9.983454062847544
51,0.0
52,5.151319292229271
53,2.014974479824613
54,2.244891003043213
55,1000.0
56,-984.6984406466997
57,1.4202516234919156
58,2.127698732750959
59,-9.983454062847544
60,0.0
61,5.729672580548422
62,5.74957854668404
63,5.3093057464044175
64,1.9722528070653458
65,2.230032019075771
66,1000.0
67,-9575.811610102479
68,4.016289901230596
69,0.0
70,0.0
71,0.0
72,3.6421525068747655
73,2.0141380119883934
74,2.25
75,1000.0
76,-133.4114762463086
77,1.3255502405384458
78,1.9858814363733992
79,1.3426821486090181
80,5.397075602309092
81,0.0
82,-16.5590960587336
83,0.0
84,0.0
85,0.0
86,-18.350618588161243
2,1, 1, 1, 0, 1,30.00,45.00,Sunday
7,2.375
8,-11.433930583453161
9,0.0
10,0.0
11,18.89
12,0.0
13,0.0
14,0.0
15,0.0
16,0.0
17,0.0
18,0.0
19,0.0
20,0.0
21,0.0
22,0.0
23,0.0
24,-126.08337862361694
25,4.794075177822253
26,0.06960327082969904
27,2.369891003043213
28,3.3919536522462783
29,-572.2415238881299
30,1.3968001028107317
31,2.1303561352919225
32,-84.48682326185886
33,0.0
34,4.785611592458453
35,0.06939734710092785
36,2.369891003043213
37,3.391953554847225
38,-677.3093447698914
39,1.3968000681686008
40,2.1303560846277856
41,-100.016982187527
42,0.0
43,4.7651008551777565
44,-0.21005868923073495
45,2.369891003043213
46,2.54403631844879
47,-596.4797715005375
48,1.3968000681686008
49,2.1303560846277856
50,-112.16670028641579
51,0.0
52,4.7651008551777565
53,-0.2100586892307347
54,2.369891003043213
55,2.54403631844879
56,-596.4797715005375
57,1.3968000681686008
58,2.1303560846277856
59,-112.16670028641579
60,0.0
61,5.683511624499278
62,5.729672580548422
63,4.87701959310742
64,-5.326894953309682
65,2.355032019075771
66,2.9237878994374324
67,-5602.401954451467
68,3.949788827722839
69,0.0
70,0.0
71,0.0
72,3.3097463440096817
73,1.3713722819217082
74,2.375
75,2.2920225112167465
76,-137.70979751472595
77,1.3036738710343947
78,1.988378653771054
79,5.703973738201477
80,5.337837797213445
81,0.0
82,-147.94021005753225
83,0.0
84,0.0
85,0.0
86,-88.66939680549034
2,1, 1, 1, 0, 1,45.00,60.00,Sunday
7,2.5
8,-14.691922030337082
9,0.0
10,0.0
11,18.89
12,0.0
13,0.0
14,0.0
15,0.0
16,0.0
17,0.0
18,0.0
19,0.0
20,0.0
21,0.0
22,0.0
23,0.0
24,-138.83295045886433
25,4.641026039590831
26,-1.0757082686141648
27,2.494891003043213
28,1.759644576000818
29,-513.6294001960573
30,1.3567740648964957
31,2.1093395210429287
32,-129.85007597223705
33,0.0
34,4.630929318087755
35,-1.0762584526736625
36,2.494891003043213
37,1.7596943765959814
38,-607.8317544195626
39,1.3567724600760047
40,2.1093371539140877
41,-153.7285511624944
42,0.0
43,4.635572880304727
44,-1.0315086165957956
45,2.494891003043213
46,1.8248349743959036
47,-619.5150587830366
48,1.35459610170183
49,2.106126941954936
50,-151.57116032591802
51,0.0
52,4.635572880304727
53,-1.0315086165957956
54,2.494891003043213
55,1.8248349743959036
56,-619.5150587830366
57,1.35459610170183
58,2.106126941954936
59,-151.57116032591802
60,0.0
61,5.641838447465602
62,5.683511624499278
63,4.7116038134837135
64,-9.258494897464468
65,2.480032019075771
66,1.5074058279847726
67,-4694.695186232574
68,3.720177131861099
69,0.0
70,0.0
71,0.0
72,2.9064641557412187
73,0.7714007034921906
74,2.5
75,1.363601391738154
76,-149.2826320799528
77,1.275821974610573
78,1.982782912634725
79,9.798881630223061
80,5.214154207726707
81,0.0
82,-242.0791094666796
83,0.0
84,0.0
85,0.0
86,-185.2133388837792
2,1, 1, 1, 0, 2, 0.00,15.00,Sunday
7,2.45
8,-13.865862325871092
9,0.0
10,0.0
11,18.89
12,0.0
13,0.0
14,0.0
15,0.0
16,0.0
17,0.0
18,0.0
19,0.0
20,0.0
21,0.0
22,0.0
23,0.0
24,-130.5325040593626
25,4.6453211811309085
26,-0.6158072176366884
27,2.4448910030432134
28,2.392366211870397
29,-567.3298575647821
30,1.3540723809295636
31,2.0956340960140705
32,-110.58356155322487
33,0.0
34,4.635245877981746
35,-0.6164150619282937
36,2.4448910030432134
37,2.392451396706428
38,-671.3806181948542
39,1.3540681089634359
40,2.095627807490437
41,-130.92464652601473
42,0.0
43,4.625146307435999
44,-0.7562605017323477
45,2.4448910030432134
46,2.0996356443953035
47,-631.9554844298605
48,1.3544156124878481
49,2.0961393466958875
50,-136.93891570914025
51,0.0
52,4.625146307435999
53,-0.7562605017323477
54,2.4448910030432134
55,2.0996356443953035
56,-631.9554844298605
57,1.3544156124878481
58,2.0961393466958875
59,-136.93891570914025
60,0.0
61,5.606184252556707
62,5.641838447465602
63,4.7185377451232675
64,-7.878439979215789
65,2.4300320190757714
66,1.8968504706543523
67,-5081.110638943495
68,3.6538340920968038
69,0.0
70,0.0
71,0.0
72,2.918534765140862
73,0.907353096860902
74,2.45
75,1.8234881024221377
76,-146.30982429499767
77,1.2772487464604354
78,1.9757739628976063
79,8.748862460836571
80,5.093616637038948
81,0.0
82,-144.4076439660305
83,0.0
84,0.0
85,0.0
86,-180.58044303238822
2,1, 1, 1, 0, 2,15.00,30.00,Sunday
7,2.4
8,-13.047623295940127
9,0.0
10,0.0
11,18.89
12,0.0
13,0.0
14,0.0
15,0.0
16,0.0
17,0.0
18,0.0
19,0.0
20,0.0
21,0.0
22,0.0
23,0.0
24,-125.23118773684496
25,4.611045388426467
26,-0.3473066592984247
27,2.394891003043213
28,2.8086257067956124
29,-580.6172127052034
30,1.3638200316249358
31,2.1003196137867874
32,-99.29759970887537
33,0.0
34,4.601258974690453
35,-0.34790375667938844
36,2.394891003043213
37,2.808705129631148
38,-687.1111353815819
39,1.3638152915437847
40,2.1003126514819597
41,-117.56492334133185
42,0.0
43,4.58766207898226
44,-0.5473133707354159
45,2.394891003043213
46,2.313405659914906
47,-629.9075704035478
48,1.3627251330229486
49,2.0987113965955295
50,-126.01610824697569
51,0.0
52,4.587662078982261
53,-0.5473133707354159
54,2.394891003043213
55,2.313405659914906
56,-629.9075704035478
57,1.3627251330229486
58,2.0987113965955295
59,-126.01610824697569
60,0.0
61,5.568343329049606
62,5.606184252556707
63,4.689985831380228
64,-6.891330429613981
65,2.380032019075771
66,2.2276000199178028
67,-5290.654633192714
68,3.700157465148093
69,0.0
70,0.0
71,0.0
72,2.951408854201418
73,1.0192044361039052
74,2.4
75,2.088751408868648
76,-142.41734282123863
77,1.284026897122167
78,1.9766973545524382
79,7.833581411221378
80,5.0119540051040214
81,0.0
82,-75.37898188885869
83,0.0
84,0.0
85,0.0
86,-122.37681156397673
2,1, 1, 1, 0, 2,30.00,45.00,Sunday
7,2.3499999999999996
8,-12.237034327235847
9,0.0
10,0.0
11,18.89
12,0.0
13,0.0
14,0.0
15,0.0
16,0.0
17,0.0
18,0.0
19,0.0
20,0.0
21,0.0
22,0.0
23,0.0
24,-120.29899778397596
25,4.601008893839109
26,-0.09114409092960006
27,2.344891003043213
28,3.2741832563508133
29,-590.4727303887831
30,1.3720593948602366
31,2.1028198388686103
32,-88.31616708490183
33,0.0
34,4.591336664888468
35,-0.09169809950780484
36,2.344891003043213
37,3.2742452762712064
38,-698.789053919001
39,1.3720547230353533
40,2.102812991548961
41,-104.56430485125613
42,0.0
43,4.576969404573792
44,-0.3027654288190697
45,2.344891003043213
46,2.6510559893311783
47,-637.8770045356774
48,1.3704952735963822
49,2.10052733950618
50,-113.49859176969738
51,0.0
52,4.576969404573795
53,-0.3027654288190697
54,2.344891003043213
55,2.6510559893311783
56,-637.8770045356774
57,1.3704952735963822
58,2.10052733950618
59,-113.49859176969738
60,0.0
61,5.532129538771808
62,5.568343329049606
63,4.688591715634749
64,-5.808262851120675
65,2.330032019075771
66,2.7150175219970443
67,-5581.761485804711
68,3.7382931294953443
69,0.0
70,0.0
71,0.0
72,2.978754062867779
73,1.1216713748363532
74,2.3499999999999996
75,2.3613560584915607
76,-138.16820449944225
77,1.2906018620995259
78,1.9773617923293594
79,6.970586554043857
80,4.967483391570962
81,0.0
82,-39.615447655976006
83,0.0
84,0.0
85,0.0
86,-66.65278793380244
2,1, 1, 1, 0, 2,45.00,60.00,Sunday
7,2.3
8,-11.433930583453161
9,0.0
10,0.0
11,18.89
12,0.0
13,0.0
14,0.0
15,0.0
16,0.0
17,0.0
18,0.0
19,0.0
20,0.0
21,0.0
22,0.0
23,0.0
24,-116.24881433749687
25,4.60108536652389
26,0.13086414890547682
27,2.294891003043213
28,3.7420303397823735
29,-592.2104497748177
30,1.3801809987006521
31,2.1051818253498684
32,-78.5428876137941
33,0.0
34,4.591579066588239
35,0.13034720297420943
36,2.294891003043213
37,3.7420741084732483
38,-700.856360587031
39,1.3801766499044403
40,2.1051754650089474
41,-92.99405461121161
42,0.0
43,4.578508286283613
44,-0.06179098729815701
45,2.294891003043213
46,3.0637729575952313
47,-645.1438139689017
48,1.3785207073991748
49,2.102753536417018
50,-101.13229447640612
51,0.0
52,4.57850828628361
53,-0.06179098729815701
54,2.294891003043213
55,3.0637729575952313
56,-645.1438139689017
57,1.3785207073991748
58,2.102753536417018
59,-101.13229447640612
60,0.0
61,5.498006124091606
62,5.532129538771808
63,4.697656351976582
64,-4.807250590298077
65,2.280032019075771
66,3.2848660325188606
67,-5815.633233518985
68,3.7786013633794764
69,0.0
70,0.0
71,0.0
72,3.016768622797315
73,1.2221597303668545
74,2.3
75,2.6279704945263727
76,-133.8465579294345
77,1.2970812904966964
78,1.9779255687313189
79,6.118265270331682
80,4.945907054824058
81,0.0
82,-22.324872034738767
83,0.0
84,0.0
85,0.0
86,-32.34123528918246
2,1, 1, 1, 0, 3, 0.00,15.00,Sunday
7,2.25
8,-10.88223654567247
9,0.0
10,0.0
11,18.89
12,0.0
13,0.0
14,0.0
15,0.0
16,0.0
17,0.0
18,0.0
19,0.0
20,0.0
21,0.0
22,0.0
23,0.0
24,-114.2318055347426
25,4.5919641953123795
26,0.23006346593247307
27,2.244891003043213
28,3.966271187454149
29,-582.9490238698843
30,1.386142723910258
31,2.107154379777875
32,-73.19625125449959
33,0.0
34,4.582593258854588
35,0.22957630726857794
36,2.244891003043213
37,3.9663055155589313
38,-689.9019208305145
39,1.3861386560585331
40,2.1071484392485913
41,-86.66395570410523
42,0.0
43,4.570545102250411
44,0.053079413123308224
45,2.244891003043213
46,3.2778241886433337
47,-638.6373373919666
48,1.384627441594345
49,2.1049415006537346
50,-94.15507969533721
51,0.0
52,4.570545102250407
53,0.053079413123308244
54,2.244891003043213
55,3.2778241886433337
56,-638.6373373919666
57,1.384627441594345
58,2.1049415006537346
59,-94.15507969533721
60,0.0
61,5.464868581317195
62,5.498006124091606
63,4.69287660185924
64,-4.304226092517908
65,2.230032019075771
66,3.583626246389737
67,-5824.002619530324
68,3.8120366581809795
69,0.0
70,0.0
71,0.0
72,3.0357224328296297
73,1.2734117445539255
74,2.25
75,2.742381055969748
76,-130.53804585815692
77,1.3017698602246064
78,1.9784684226432145
79,5.543551193342896
80,4.932488614278331
81,0.0
82,-21.36205875259121
83,0.0
84,0.0
85,0.0
86,-20.114159715547775
2,1, 1, 1, 0, 3,15.00,30.00,Sunday
7,2.2
8,-10.334002252279845
9,0.0
10,0.0
11,18.89
12,0.0
13,0.0
14,0.0
15,0.0
16,0.0
17,0.0
18,0.0
19,0.0
20,0.0
21,0.0
22,0.0
23,0.0
24,-112.23505924817917
25,4.586171149688628
26,0.3248282119316666
27,2.1948910030432134
28,4.198551222946311
29,-572.2113861077156
30,1.3911277147530234
31,2.107717005622126
32,-67.95526257034837
33,0.0
34,4.576921706259485
35,0.3243623726443741
36,2.1948910030432134
37,4.198577467245322
38,-677.1977375827151
39,1.391123874245683
40,2.107711405376327
41,-80.45925576263218
42,0.0
43,4.566236543850368
44,0.16773208799912787
45,2.1948910030432134
46,3.51915954744383
47,-631.629015165714
48,1.3897330740690255
49,2.1056833171826628
50,-87.11267652095455
51,0.0
52,4.5662365438503665
53,0.1677320879991279
54,2.1948910030432134
55,3.51915954744383
56,-631.629015165714
57,1.3897330740690255
58,2.1056833171826628
59,-87.11267652095455
60,0.0
61,5.4330707809089285
62,5.464868581317195
63,4.691531228974569
64,-3.8191005240080296
65,2.1800320190757714
66,3.9025199773546917
67,-5802.465372774452
68,3.834729675050505
69,0.0
70,0.0
71,0.0
72,3.05234752348224
73,1.3215607757956604
74,2.2
75,2.8645414893607075
76,-127.11025467259552
77,1.3060826167617836
78,1.9784806441874367
79,4.986360084664304
80,4.919675164640997
81,0.0
82,-22.52776275021244
83,0.0
84,0.0
85,0.0
86,-19.208167142320004
2,1, 1, 1, 0, 3,30.00,45.00,Sunday
7,2.1500000000000004
8,-9.78917749753515
9,0.0
10,0.0
11,18.89
12,0.0
13,0.0
14,0.0
15,0.0
16,0.0
17,0.0
18,0.0
19,0.0
20,0.0
21,0.0
22,0.0
23,0.0
24,-111.54461475294666
25,4.569558487632485
26,0.2695506460548916
27,2.1448910030432136
28,3.7593871463015303
29,-525.0748973523215
30,1.3960654260074412
31,2.108229047501244
32,-68.16359677743912
33,0.0
34,4.570683978994835
35,0.4111234696388311
36,2.1448910030432136
37,4.429321680299497
38,-662.1943939672391
39,1.396061746932053
40,2.108223690521247
41,-74.59471532696004
42,0.0
43,4.571531431985697
44,0.41531872168962314
45,2.1448910030432136
46,4.43598510654742
47,-662.8012104080559
48,1.3948252034393567
49,2.1064231878009685
50,-74.35066358531618
51,0.0
52,4.561383439344743
53,0.2748417465831822
54,2.1448910030432136
55,3.771112863179571
56,-622.4919949368709
57,1.3948252034393567
58,2.1064231878009685
59,-80.3894723880612
60,0.0
61,5.40237610123382
62,5.4330707809089285
63,4.689254029982537
64,-3.3709201179966737
65,2.1300320190757716
66,4.229739586774068
67,-5749.658443339743
68,3.857047466378668
69,0.0
70,0.0
71,0.0
72,3.050517633561981
73,1.3301953358023297
74,2.1500000000000004
75,2.537670065046595
76,-122.15800332423822
77,1.3103596872701224
78,1.9784595333979629
79,4.6524759245035225
80,4.905720065329989
81,0.0
82,-22.64804887739839
83,0.0
84,0.0
85,0.0
86,-20.920621742457968
2,1, 1, 1, 0, 3,45.00,60.00,Sunday
7,2.1
8,-9.247713211163784
9,0.0
10,0.0
11,18.89
12,0.0
13,0.0
14,0.0
15,0.0
16,0.0
17,0.0
18,0.0
19,0.0
20,0.0
21,0.0
22,0.0
23,0.0
24,-109.53164384452475
25,4.564698860000781
26,0.3752964281263264
27,2.0948910030432133
28,4.0329479926384
29,-516.534326153964
30,1.3998042353352689
31,2.1070160775851274
32,-62.46669402620813
33,0.0
34,4.56353320266798
35,0.4907110201326903
36,2.0948910030432133
37,4.658534452418037
38,-645.1154658875504
39,1.4009239128157656
40,2.1086440392500676
41,-69.03301968712962
42,0.0
43,4.563475405508341
44,0.49051490185636687
45,2.0948910030432133
46,4.658415595560017
47,-645.0745976102238
48,1.400957104377148
49,2.1086922980176728
50,-69.04303938075829
51,0.0
52,4.555602477829366
53,0.3745418691556734
54,2.0948910030432133
55,4.0326321019298055
56,-611.2294471769505
57,1.399846067722155
58,2.1070769003822463
59,-73.9771310564415
60,0.0
61,5.372648513145308
62,5.40237610123382
63,4.685790208899437
64,-2.957151296012406
65,2.0800320190757713
66,4.563612593963031
67,-5666.706865039238
68,3.878567662206598
69,0.0
70,0.0
71,0.0
72,3.069257308365991
73,1.38132209404381
74,2.1
75,2.6819443263352487
76,-118.84493325123071
77,1.3143310106626405
78,1.9780123696368874
79,4.078594130919029
80,4.891196457369433
81,0.0
82,-21.912625390943663
83,0.0
84,0.0
85,0.0
86,-21.77403206374564
2,1, 1, 1, 0, 4, 0.00,15.00,Sunday
7,2.075
8,-8.828866862773395
9,0.0
10,0.0
11,18.89
12,0.0
13,0.0
14,0.0
15,0.0
16,0.0
17,0.0
18,0.0
19,0.0
20,0.0
21,0.0
22,0.0
23,0.0
24,-108.32735262307287
25,4.540124382949754
26,0.36112224781031393
27,2.0698910030432134
28,3.7501478384160487
29,-484.67391981200063
30,1.4038788666009343
31,2.1079432412605437
32,-62.100745450332106
33,0.0
34,4.54011046719292
35,0.4880081076414567
36,2.0698910030432134
37,4.41997041610798
38,-610.6246338722161
39,1.4047930190580318
40,2.1092709237523546
41,-68.09374211671077
42,0.0
43,4.540114507717786
44,0.48802111601534215
45,2.0698910030432134
46,4.419977464701335
47,-610.627692627124
48,1.4047914652418618
49,2.1092686670556513
50,-68.09310930565816
51,0.0
52,4.531306893298009
53,0.36068105615392027
54,2.0698910030432134
55,3.7502029824652157
56,-573.5847123688285
57,1.403872891759346
58,2.107934563572179
59,-73.52804893084983
60,0.0
61,5.342551183958123
62,5.372648513145308
63,4.660010398226718
64,-2.9940814444011665
65,2.0550320190757714
66,4.225264510846612
67,-5280.7673076036335
68,3.896746985865501
69,0.0
70,0.0
71,0.0
72,3.0752789042931
73,1.4037262262228296
74,2.075
75,2.504173066312431
76,-115.24883714878202
77,1.3177404286577874
78,1.9782936775059243
79,3.809514489365447
80,4.874107789536333
81,0.0
82,-28.540156173380613
83,0.0
84,0.0
85,0.0
86,-25.621186738558496
2,1, 1, 1, 0, 4,15.00,30.00,Sunday
7,2.05
8,-8.412002228312929
9,0.0
10,0.0
11,18.89
12,0.0
13,0.0
14,0.0
15,0.0
16,0.0
17,0.0
18,0.0
19,0.0
20,0.0
21,0.0
22,0.0
23,0.0
24,-106.86476428087866
25,4.517379506884506
26,0.3521363174680926
27,2.044891003043213
28,3.477900273039112
29,-453.71845704713166
30,1.4069962792691615
31,2.107491570660354
32,-61.5055741685962
33,0.0
34,4.518030838067626
35,0.4870296453893387
36,2.044891003043213
37,4.177799393084481
38,-576.3246212913209
39,1.4080022760764677
40,2.1089510652421355
41,-67.04954162564648
42,0.0
43,4.518030553068546
44,0.48702870235132206
45,2.044891003043213
46,4.177798780386823
47,-576.3243925217582
48,1.4080023792438685
49,2.1089512149160976
50,-67.0495869720747
51,0.0
52,4.508700110876283
53,0.35166827858801375
54,2.044891003043213
55,3.4779398730556714
56,-536.9356923066939
57,1.406992782442776
58,2.1074864974587926
59,-72.82481579703175
60,0.0
61,5.312846960816233
62,5.342551183958123
63,4.635975906765142
64,-3.0216582849535225
65,2.030032019075771
66,3.888809731678492
67,-4888.84799819017
68,3.904991773911445
69,0.0
70,0.0
71,0.0
72,3.0750001959555675
73,1.4261989886578021
74,2.05
75,2.3324129456824663
76,-111.65543197507907
77,1.3209290567854295
78,1.9782652382701993
79,3.5400544895811956
80,4.853471828837063
81,0.0
82,-34.089806945879914
83,0.0
84,0.0
85,0.0
86,-30.94197008458949
2,1, 1, 1, 0, 4,30.00,45.00,Sunday
7,2.025
8,-7.997097567027481
9,0.0
10,0.0
11,18.89
12,0.0
13,0.0
14,0.0
15,0.0
16,0.0
17,0.0
18,0.0
19,0.0
20,0.0
21,0.0
22,0.0
23,0.0
24,-105.33964538011014
25,4.4934682919946605
26,0.3448186529897312
27,2.019891003043213
28,3.209710334182531
29,-423.18255716138856
30,1.4101460945448323
31,2.107099618227763
32,-60.85177412694978
33,0.0
34,4.494703637167682
35,0.4860350988824553
36,2.019891003043213
37,3.9292132031173237
38,-542.0247045591655
39,1.4112166386109615
40,2.1086510860680363
41,-66.00696917862267
42,0.0
43,4.494703657634674
44,0.4860351694540886
45,2.019891003043213
46,3.9292132595912284
47,-542.0247219819803
48,1.4112166311243062
49,2.1086510752181775
50,-66.00696580205594
51,0.0
52,4.48494586023701
53,0.3443461086715037
54,2.019891003043213
55,3.2097610583582306
56,-500.78862530410345
57,1.4101423813230782
58,2.107094236876837
59,-72.05108640212748
60,0.0
61,5.283375786250847
62,5.312846960816233
63,4.610783330796386
64,-3.048126773630967
65,2.005032019075771
66,3.5549088187514886
67,-4498.223367882127
68,3.9134175882257383
69,0.0
70,0.0
71,0.0
72,3.07586919031462
73,1.4510197049119142
74,2.025
75,2.1599841165880385
76,-108.15276849646153
77,1.3241105535879643
78,1.978237569064046
79,3.2573193928882134
80,4.830037993053052
81,0.0
82,-36.86019046763288
83,0.0
84,0.0
85,0.0
86,-35.14012173601246
2,1, 1, 1, 0, 4,45.00,60.00,Sunday
7,2.0
8,-7.584131510631607
9,0.0
10,0.0
11,18.89
12,0.0
13,0.0
14,0.0
15,0.0
16,0.0
17,0.0
18,0.0
19,0.0
20,0.0
21,0.0
22,0.0
23,0.0
24,-103.72333154362747
25,4.468908354709834
26,0.34002049968411197
27,1.9948910030432134
28,2.9472049309647437
29,-393.2636037205533
30,1.4133005597794404
31,2.1067268971826616
32,-60.10725036203972
33,0.0
34,4.4705680976796405
35,0.4852263722170314
36,1.9948910030432134
37,3.673768781488894
38,-507.77703940626424
39,1.4144223965572569
40,2.1083509583309334
41,-64.95669076205041
42,0.0
43,4.470568096180689
44,0.4852263667849107
45,1.9948910030432134
46,3.673768776216421
47,-507.77703804380013
48,1.41442239711808
49,2.108350959142823
50,-64.95669102079326
51,0.0
52,4.460543247203011
53,0.339541935238507
54,1.9948910030432134
55,2.9472659976306357
56,-465.3714742539459
57,1.4132968071547924
58,2.106721464553848
59,-71.17004071492521
60,0.0
61,5.25406840656741
62,5.283375786250847
63,4.584893648486676
64,-3.0720394877234
65,1.980032019075771
66,3.2249220857318868
67,-4109.964751992992
68,3.9218430990929414
69,0.0
70,0.0
71,0.0
72,3.076771008027947
73,1.4772962730129962
74,1.9999999999999998
75,1.9862100250112655
76,-104.70644877503207
77,1.3273019802833415
78,1.978235259354443
79,2.9663466581699933
80,4.804993247633718
81,0.0
82,-38.17026889422124
83,0.0
84,0.0
85,0.0
86,-37.55913922743808
2,1, 1, 1, 0, 5, 0.00,15.00,Sunday
7,2.025
8,-7.819875967085466
9,0.0
10,0.0
11,18.89
12,0.0
13,0.0
14,0.0
15,0.0
16,0.0
17,0.0
18,0.0
19,0.0
20,0.0
21,0.0
22,0.0
23,0.0
24,-103.92059648133856
25,4.4402552803123365
26,0.31566310464962943
27,2.019891003043213
28,2.951050209646646
29,-402.0085592188839
30,1.4114277839695453
31,2.106960318644201
32,-61.90683955340214
33,0.0
34,4.4421706182535265
35,0.46480107652491165
36,2.019891003043213
37,3.675701460223846
38,-519.2673177251872
39,1.4125806314259026
40,2.1086303391148156
41,-66.92008201865566
42,0.0
43,4.442170618364894
44,0.46480107693156075
45,2.019891003043213
46,3.6757014606315535