Program Version,EnergyPlus, Version 23.2.0-7636e6b3e9, YMD=2026.07.21 21:27
1,5,Environment Title[],Latitude[deg],Longitude[deg],Time Zone[],Elevation[m]
2,8,Day of Simulation[],Month[],Day of Month[],DST Indicator[1=yes 0=no],Hour[],StartMinute[],EndMinute[],DayType
3,5,Cumulative Day of Simulation[],Month[],Day of Month[],DST Indicator[1=yes 0=no],DayType  ! When Daily Report Variables Requested
4,2,Cumulative Days of Simulation[],Month[]  ! When Monthly Report Variables Requested
5,1,Cumulative Days of Simulation[] ! When Run Period Report Variables Requested
6,1,Calendar Year of Simulation[] ! When Annual Report Variables Requested
7,1,Environment,Site Outdoor Air Drybulb Temperature [C] !TimeStep
8,1,Environment,Site Diffuse Solar Radiation Rate per Area [W/m2] !TimeStep
9,1,Environment,Site Direct Solar Radiation Rate per Area [W/m2] !TimeStep
10,1,Environment,Site Ground Temperature [C] !TimeStep
11,1,ZONE ONE,Zone Total Internal Radiant Heating Rate [W] !TimeStep
12,1,ZONE ONE,Zone Total Internal Convective Heating Rate [W] !TimeStep
13,1,ZONE ONE,Zone Windows Total Transmitted Solar Radiation Rate [W] !TimeStep
14,1,ZN001:WALL001,Surface Outside Face Sunlit Fraction [] !TimeStep
15,1,ZN001:WALL001,Surface Outside Face Incident Solar Radiation Rate per Area [W/m2] !TimeStep
16,1,ZN001:WALL002,Surface Outside Face Incident Solar Radiation Rate per Area [W/m2] !TimeStep
17,1,ZN001:WALL003,Surface Outside Face Incident Solar Radiation Rate per Area [W/m2] !TimeStep
18,1,ZN001:WALL004,Surface Outside Face Incident Solar Radiation Rate per Area [W/m2] !TimeStep
19,1,ZN001:ROOF001,Surface Outside Face Incident Solar Radiation Rate per Area [W/m2] !TimeStep
20,1,ZN001:WALL001:WIN001,Surface Outside Face Sunlit Fraction [] !TimeStep
21,1,ZN001:WALL001:WIN001,Surface Outside Face Incident Solar Radiation Rate per Area [W/m2] !TimeStep
22,1,ZN001:WALL001:WIN001,Surface Window Transmitted Solar Radiation Rate [W] !TimeStep
23,1,ZN001:WALL001:WIN001,Surface Window Net Heat Transfer Rate [W] !TimeStep
24,1,ZN001:WALL001,Surface Inside Face Temperature [C] !TimeStep
25,1,ZN001:WALL001,Surface Outside Face Temperature [C] !TimeStep
26,1,ZN001:WALL002,Surface Inside Face Temperature [C] !TimeStep
27,1,ZN001:WALL002,Surface Outside Face Temperature [C] !TimeStep
28,1,ZN001:WALL003,Surface Inside Face Temperature [C] !TimeStep
29,1,ZN001:WALL003,Surface Outside Face Temperature [C] !TimeStep
30,1,ZN001:WALL004,Surface Inside Face Temperature [C] !TimeStep
31,1,ZN001:WALL004,Surface Outside Face Temperature [C] !TimeStep
32,1,ZN001:FLR001,Surface Inside Face Temperature [C] !TimeStep
33,1,ZN001:FLR001,Surface Outside Face Temperature [C] !TimeStep
34,1,ZN001:ROOF001,Surface Inside Face Temperature [C] !TimeStep
35,1,ZN001:ROOF001,Surface Outside Face Temperature [C] !TimeStep
36,1,ZN001:WALL001:WIN001,Surface Inside Face Temperature [C] !TimeStep
37,1,ZN001:WALL001:WIN001,Surface Outside Face Temperature [C] !TimeStep
38,1,ZONE ONE,Zone Mean Air Temperature [C] !TimeStep
39,1,ZONE ONE,Zone Air Heat Balance Outdoor Air Transfer Rate [W] !TimeStep
End of Data Dictionary
1,RUN PERIOD 1,  55.95,  -3.37,   0.00,  41.10
2,1, 4, 1, 0, 1, 0.00,15.00,Saturday
7,3.8249999999999997
8,0.0
9,0.0
10,19.12
11,0.0
12,0.0
13,0.0
14,0.0
15,0.0
16,0.0
17,0.0
18,0.0
19,0.0
20,0.0
21,0.0
22,0.0
23,-90.98860948516477
24,6.554358733116361
25,2.91443299319092
26,6.547672960337172
27,2.9168447628788012
28,6.540346419157505
29,2.814905818442493
30,6.539709491518782
31,2.8101974189779084
32,7.215367671409673
33,7.24144409082112
34,6.667225865889294
35,0.4665723506478229
36,5.374411195033417
37,4.005375120945018
38,6.871467777434995
39,0.0
2,1, 4, 1, 0, 1,15.00,30.00,Saturday
7,3.8499999999999996
8,0.0
9,0.0
10,19.12
11,0.0
12,0.0
13,0.0
14,0.0
15,0.0
16,0.0
17,0.0
18,0.0
19,0.0
20,0.0
21,0.0
22,0.0
23,-96.2004069233591
24,6.497515485033312
25,2.703822586804473
26,6.489865366816778
27,2.7032738446001026
28,6.481701525229142
29,2.5829228294963675
30,6.4817646374327325
31,2.583289281317001
32,7.188206467235574
33,7.215367671409673
34,6.605866149944584
35,-0.21650062088261712
36,5.244031829957635
37,3.79421336186698
38,6.829441273134797
39,0.0
2,1, 4, 1, 0, 1,30.00,45.00,Saturday
7,3.875
8,0.0
9,0.0
10,19.12
11,0.0
12,0.0
13,0.0
14,0.0
15,0.0
16,0.0
17,0.0
18,0.0
19,0.0
20,0.0
21,0.0
22,0.0
23,-101.9236927716991
24,6.4285408346723205
25,2.35821648436628
26,6.431015141637715
27,2.5046641055743346
28,6.431803459343274
29,2.5091073120673193
30,6.4215386123646185
31,2.3649574502269983
32,7.159706241890432
33,7.188206467235574
34,6.54335911000335
35,-0.8505893127949214
36,5.103933539222567
37,3.564990240984116
38,6.782388057804741
39,0.0
2,1, 4, 1, 0, 1,45.00,60.00,Saturday
7,3.9
8,0.0
9,0.0
10,19.12
11,0.0
12,0.0
13,0.0
14,0.0
15,0.0
16,0.0
17,0.0
18,0.0
19,0.0
20,0.0
21,0.0
22,0.0
23,-106.80705148717014
24,6.369378353326
25,2.1619161559844584
26,6.371406216385445
27,2.3165932012528865
28,6.371341115098693
29,2.3163300082470153
30,6.360894354457331
31,2.160966061900877
32,7.129856921122102
33,7.159706241890432
34,6.480577059737383
35,-1.439573419953513
36,4.976666475298998
37,3.360068112210797
38,6.7324404922442955
39,0.0
2,1, 4, 1, 0, 2, 0.00,15.00,Saturday
7,3.8249999999999997
8,0.0
9,0.0
10,19.12
11,0.0
12,0.0
13,0.0
14,0.0
15,0.0
16,0.0
17,0.0
18,0.0
19,0.0
20,0.0
21,0.0
22,0.0
23,-109.1244140189205
24,6.319197795787209
25,2.0235384098963
26,6.321271268068892
27,2.1815856062422916
28,6.321276392864963
29,2.1816048679262123
30,6.310618428821911
31,2.0231244773929986
32,7.099577637014743
33,7.129856921122102
34,6.432375113501409
35,-1.6881528438377273
36,4.890362989877303
37,3.2366382008202663
38,6.683077164161659
39,0.0
2,1, 4, 1, 0, 2,15.00,30.00,Saturday
7,3.75
8,0.0
9,0.0
10,19.12
11,0.0
12,0.0
13,0.0
14,0.0
15,0.0
16,0.0
17,0.0
18,0.0
19,0.0
20,0.0
21,0.0
22,0.0
23,-111.62619818130209
24,6.2674850937131
25,1.883359498142051
26,6.269655426783519
27,2.045681275717699
28,6.26965502464494
29,2.0456797964852464
30,6.258702139297177
31,1.8828893040825334
32,7.068384108695016
33,7.099577637014743
34,6.3821864764707135
35,-1.9454679837956996
36,4.805167475414521
37,3.1115708793814747
38,6.635852001626677
39,0.0
2,1, 4, 1, 0, 2,30.00,45.00,Saturday
7,3.6750000000000003
8,0.0
9,0.0
10,19.12
11,0.0
12,0.0
13,0.0
14,0.0
15,0.0
16,0.0
17,0.0
18,0.0
19,0.0
20,0.0
21,0.0
22,0.0
23,-114.11278546565185
24,6.216476594707995
25,1.7442843200995917
26,6.206211738275731
27,1.7347996671331636
28,6.218713083121345
29,1.9105643351346948
30,6.219762411796121
31,1.9164994633757455
32,7.036427067335111
33,7.068384108695016
34,6.332655362152629
35,-2.199450285901285
36,4.720007182266897
37,2.9867983293094085
38,6.5903685803785
39,0.0
2,1, 4, 1, 0, 2,45.00,60.00,Saturday
7,3.6
8,0.0
9,0.0
10,19.12
11,0.0
12,0.0
13,0.0
14,0.0
15,0.0
16,0.0
17,0.0
18,0.0
19,0.0
20,0.0
21,0.0
22,0.0
23,-116.60422981202412
24,6.16589614841924
25,1.6059927055584258
26,6.156845549782225
27,1.6061483724743328
28,6.168186200064136
29,1.7760203628137305
30,6.168100586181608
31,1.7756744297578966
32,7.0037812150438885
33,7.036427067335111
34,6.283515548647312
35,-2.4507343697564985
36,4.635489309547779
37,2.8626150557189476
38,6.545730219381756
39,0.0
2,1, 4, 1, 0, 3, 0.00,15.00,Saturday
7,3.6
8,0.0
9,0.0
10,19.12
11,0.0
12,0.0
13,0.0
14,0.0
15,0.0
16,0.0
17,0.0
18,0.0
19,0.0
20,0.0
21,0.0
22,0.0
23,-115.95612872755535
24,6.1392001056184995
25,1.6323560936264891
26,6.129948932693144
27,1.6318124118774604
28,6.140812115013438
29,1.793626166523407
30,6.140818499675603
31,1.7936496456177327
32,6.972056152903516
33,7.0037812150438885
34,6.256813731524174
35,-2.3259501066112787
36,4.600299493171633
37,2.835572676444599
38,6.504851523951216
39,0.0
2,1, 4, 1, 0, 3,15.00,30.00,Saturday
7,3.6
8,0.0
9,0.0
10,19.12
11,0.0
12,0.0
13,0.0
14,0.0
15,0.0
16,0.0
17,0.0
18,0.0
19,0.0
20,0.0
21,0.0
22,0.0
23,-115.61314973233172
24,6.110214572237907
25,1.6507963234721879
26,6.10096287088042
27,1.6503110744629037
28,6.111363952716831
29,1.8048976549998377
30,6.111363485863097
31,1.8048960274293349
32,6.940301938085595
33,6.972056152903516
34,6.228120180812537
35,-2.2186675374803206
36,4.572136089589833
37,2.8116769530067813
38,6.468991106364696
39,0.0
2,1, 4, 1, 0, 3,30.00,45.00,Saturday
7,3.6
8,0.0
9,0.0
10,19.12
11,0.0
12,0.0
13,0.0
14,0.0
15,0.0
16,0.0
17,0.0
18,0.0
19,0.0
20,0.0
21,0.0
22,0.0
23,-115.2813436073444
24,6.083525648173295
25,1.6700525112168778
26,6.074254537315459
27,1.6695735154606621
28,6.084083025510379
29,1.8155131384977454
30,6.08408305893887
31,1.8155132506872134
32,6.90876469789165
33,6.940301938085595
34,6.201483927366559
35,-2.115496596349509
36,4.544761843035303
37,2.788665914998205
38,6.437116566580429
39,0.0
2,1, 4, 1, 0, 3,45.00,60.00,Saturday
7,3.6
8,0.0
9,0.0
10,19.12
11,0.0
12,0.0
13,0.0
14,0.0
15,0.0
16,0.0
17,0.0
18,0.0
19,0.0
20,0.0
21,0.0
22,0.0
23,-114.98510614982274
24,6.058346782122495
25,1.6891524789420826
26,6.04906196912514
27,1.6886835490794865
28,6.0582543926945
29,1.825083647661338
30,6.058254390340499
31,1.8250836400283619
32,6.877527364788343
33,6.90876469789165
34,6.176214462142915
35,-2.0172327531707124
36,4.519148551796889
37,2.767012693617346
38,6.407702919500881
39,0.0
2,1, 4, 1, 0, 4, 0.00,15.00,Saturday
7,3.625
8,0.0
9,0.0
10,19.12
11,0.0
12,0.0
13,0.0
14,0.0
15,0.0
16,0.0
17,0.0
18,0.0
19,0.0
20,0.0
21,0.0
22,0.0
23,-112.55151896786312
24,6.042107440329634
25,1.7674941209024342
26,6.032970795871818
27,1.7670208608739573
28,6.0417965511191305
29,1.8975188929109006
30,6.041796551280583
31,1.8975188934360265
32,6.847100495859701
33,6.877527364788343
34,6.158428850954815
35,-1.829371414299903
36,4.528990960550402
37,2.8132237976586794
38,6.380897406950291
39,0.0
2,1, 4, 1, 0, 4,15.00,30.00,Saturday
7,3.6500000000000004
8,0.0
9,0.0
10,19.12
11,0.0
12,0.0
13,0.0
14,0.0
15,0.0
16,0.0
17,0.0
18,0.0
19,0.0
20,0.0
21,0.0
22,0.0
23,-110.28723867707184
24,6.026412895609317
25,1.8433648219670566
26,6.017426199336533
27,1.8428992985329067
28,6.025907177593772
29,1.9680311245872144
30,6.025907177582791
31,1.9680311245516442
32,6.817243917559977
33,6.847100495859701
34,6.14130409256658
35,-1.6459675491131927
36,4.541120218818833
37,2.8602517728196517
38,6.356744858311279
39,0.0
2,1, 4, 1, 0, 4,30.00,45.00,Saturday
7,3.6750000000000003
8,0.0
9,0.0
10,19.12
11,0.0
12,0.0
13,0.0
14,0.0
15,0.0
16,0.0
17,0.0
18,0.0
19,0.0
20,0.0
21,0.0
22,0.0
23,-108.06224127589816
24,6.012021581031091
25,1.9188721127027406
26,6.003184089229043
27,1.9184166917897116
28,6.011318176946865
29,2.0382199817508786
30,6.011318176947587
31,2.0382199817532567
32,6.7880020533645755
33,6.817243917559977
34,6.1254320844391685
35,-1.4648514112400444
36,4.554018082895254
37,2.9075590111538077
38,6.334741889783575
39,0.0
2,1, 4, 1, 0, 4,45.00,60.00,Saturday
7,3.7
8,0.0
9,0.0
10,19.12
11,0.0
12,0.0
13,0.0
14,0.0
15,0.0
16,0.0
17,0.0
18,0.0
19,0.0
20,0.0
21,0.0
22,0.0
23,-105.8762708169452
24,5.9986832691642205
25,1.993878140925276
26,5.989995545636868
27,1.9934325595505955
28,5.997785796832049
29,2.1079870217145924
30,5.99778579683201
31,2.107987021714441
32,6.759400899263081
33,6.7880020533645755
34,6.110589224498786
35,-1.2860672215485471
36,4.567780301119797
37,2.955184866985121
38,6.3142762570440825
39,0.0
2,1, 4, 1, 0, 5, 0.00,15.00,Saturday
7,3.7
8,0.0
9,0.0
10,19.12
11,0.0
12,0.0
13,0.0
14,0.0
15,0.0
16,0.0
17,0.0
18,0.0
19,0.0
20,0.0
21,0.0
22,0.0
23,-112.24251080186845
24,5.93661788742667
25,1.741604740292479
26,5.927601202417279
27,1.741202512090012
28,5.936475070652023
29,1.8712062015503137
30,5.936475070652029
31,1.8712062015503108
32,6.7280219569114
33,6.759400899263081
34,6.046214842964571
35,-1.9741507829367353
36,4.446809759466589
37,2.7394212323815736
38,6.287376152377426
39,0.0
2,1, 4, 1, 0, 5,15.00,30.00,Saturday
7,3.7
8,0.0
9,0.0
10,19.12
11,0.0
12,0.0
13,0.0
14,0.0
15,0.0
16,0.0
17,0.0
18,0.0
19,0.0
20,0.0
21,0.0
22,0.0
23,-117.7967771901742
24,5.878186043801002
25,1.501756498451362
26,5.868767981554716
27,1.5013431794924237
28,5.878335896580832
29,1.6426022411626873
30,5.878335896580831
31,1.6426022411626875
32,6.6957573034602795
33,6.7280219569114
34,5.98525404137874
35,-2.6386352793249785
36,4.314408157331968
37,2.520465971307715
38,6.249809545637054
39,0.0
2,1, 4, 1, 0, 5,30.00,45.00,Saturday
7,3.7
8,0.0
9,0.0
10,19.12
11,0.0
12,0.0
13,0.0
14,0.0
15,0.0
16,0.0
17,0.0
18,0.0
19,0.0
20,0.0
21,0.0
22,0.0
23,-123.18733458575552
24,5.814972140208668
25,1.2641708169776726
26,5.805180349812509
27,1.2637400868475024
28,5.815421835934398
29,1.4155205879184598
30,5.8154218359344005
31,1.4155205879184598
32,6.6621682409752285
33,6.6957573034602795
34,5.9197175767549535
35,-3.29580582613896
36,4.18232320105102
37,2.303518489141993
38,6.203032911935047
39,0.0
2,1, 4, 1, 0, 5,45.00,60.00,Saturday
7,3.7
8,0.0
9,0.0
10,19.12
11,0.0
12,0.0
13,0.0
14,0.0
15,0.0
16,0.0
17,0.0
18,0.0
19,0.0
20,0.0
21,0.0
22,0.0
23,-128.37194294373356
24,5.748135836836993
25,1.029637598453433
26,5.737974321859472
27,1.0291907442809447
28,5.748831741039539
29,1.1905769810285896
30,5.748831741039535
31,1.1905769810285896
32,6.627079539290669
33,6.6621682409752285
34,5.850622705566138
35,-3.9451063317194044
36,4.048289716609588
37,2.087307229767589
38,6.150157442342941
39,0.0
2,1, 4, 1, 0, 6, 0.00,15.00,Saturday
7,3.7
8,0.0
9,0.0
10,19.12
11,0.0
12,0.0
13,0.0
14,0.0
15,0.0
16,0.0
17,0.0
18,0.0
19,0.0
20,0.0
21,0.0
22,0.0
23,-126.08661205058583
24,5.723520784506751
25,1.0929946048894508
26,5.7133588630547045
27,1.0925114991426947
28,5.723094721477887
29,1.2381215100170067
30,5.723094721477873
31,1.2381215100170153
32,6.593618799331545
33,6.627079539290669
34,5.82597016448378
35,-3.7323642446987817
36,4.026098170623982
37,2.092165222323615
38,6.101011650186658
39,0.0
2,1, 4, 1, 0, 6,15.00,30.00,Saturday
7,3.7
8,0.0
9,0.0
10,19.12
11,0.0
12,0.0
13,0.0
14,0.0
15,0.0
16,0.0
17,0.0
18,0.0
19,0.0
20,0.0
21,0.0
22,0.0
23,-124.56069221651353
24,5.694371859459302
25,1.1445642818374766
26,5.684289439674853
27,1.1440862169691601
28,5.693233763437583
29,1.2771936955524554
30,5.69323376343757
31,1.2771936955524592
32,6.5600587151955665
33,6.593618799331545
34,5.7967800623414245
35,-3.552771511128422
36,4.015080830112538
37,2.103366218400936
38,6.060261073793075
39,0.0
2,1, 4, 1, 0, 6,30.00,45.00,Saturday
7,3.7
8,0.0
9,0.0
10,19.12
11,0.0
12,0.0
13,0.0
14,0.0
15,0.0
16,0.0
17,0.0
18,0.0
19,0.0
20,0.0
21,0.0
22,0.0
23,-123.0683621473895
24,5.669054962610539
25,1.1957001862205114
26,5.65903272044754
27,1.1952334409227665
28,5.667143385087535
29,1.31570538355251
30,5.667143385087577
31,1.3157053835525172
32,6.526848319675693
33,6.5600587151955665
34,5.771211928943741
35,-3.3791240092118016
36,4.003838461353837
37,2.1144606626670566
38,6.026691690799451
39,0.0
2,1, 4, 1, 0, 6,45.00,60.00,Saturday
7,3.7
8,14.0
9,52.5
10,19.12
11,0.0
12,0.0
13,49.14816385780933
14,0.0
15,8.032833586183418
16,85.73306964808394
17,16.53975759370996
18,8.032833586183418
19,15.636484436401128
20,0.0
21,8.032833586183418
22,49.14816385780933
23,-67.53003059954969
24,5.813007315835387
25,1.8888800261863623
26,6.251916163791705
27,8.106103069889029
28,5.8609762880434015
29,2.618392022459006
30,5.814570676834047
31,1.968598931210583
32,6.510330387476083
33,6.526848319675693
34,5.91744769657732
35,-1.9852649642031086
36,4.083300919255407
37,2.2203171100155146
38,6.0313217882409775
39,0.0
2,1, 4, 1, 0, 7, 0.00,15.00,Saturday
7,3.8500000000000005
8,21.0
9,78.75
10,19.12
11,0.0
12,0.0
13,76.08097319980499
14,0.0
15,12.434763556112115
16,130.15035602892897
17,18.90684697142073
18,12.434763556112115
19,26.326492261284343
20,0.0
21,12.434763556112115
22,76.08097319980499
23,-37.10184012677862
24,5.893376831533955
25,2.32396766931451
26,6.569263816489185
27,11.602369699498519
28,5.933556329437944
29,2.8888854655362954
30,5.898936912496663
31,2.4016721981308615
32,6.495325459281008
33,6.510330387476083
34,5.996878187611226
35,-1.2158787198458347
36,4.227587456619403
37,2.374250372208053
38,6.068227076858139
39,0.0
2,1, 4, 1, 0, 7,15.00,30.00,Saturday
7,4.0
8,28.0
9,105.0
10,19.12
11,0.0
12,0.0
13,103.91760306689338
14,0.0
15,16.984415013477278
16,173.11604455035575
17,17.25398575680436
18,16.984415013477278
19,38.933274444595575
20,0.0
21,16.984415013477278
22,103.91760306689338
23,-5.224051213492798
24,5.991095354112727
25,2.791731756561039
26,6.8511603149847735
27,14.998623034738564
28,6.000164194144303
29,2.869629928826621
30,6.000134815019528
31,2.860927651653764
32,6.485760760838843
33,6.495325459281008
34,6.09521224883908
35,-0.23746060719334794
36,4.351909980908715
37,2.5195007506094953
38,6.125384822096441
39,0.0
2,1, 4, 1, 0, 7,30.00,45.00,Saturday
7,4.1499999999999995
8,32.0
9,109.0
10,19.12
11,0.0
12,0.0
13,138.3010562969019
14,1.0
15,27.85049858435052
16,170.8985057076074
17,19.78542156026147
18,19.78542156026147
19,47.31233765998009
20,1.0
21,27.85049858435052
22,138.3010562969019
23,34.98377237437108
24,6.109937730662854
25,3.8200632280946194
26,6.869379998341185
27,14.801184964827995
28,6.071737657349685
29,3.1887590935145456
30,6.071747304243717
31,3.1888820291187394
32,6.478523261539893
33,6.485760760838843
34,6.162637371383673
35,0.4201140036725071
36,4.519192015845306
37,2.713223986110279
38,6.185790409099896
39,0.0
2,1, 4, 1, 0, 7,45.00,60.00,Saturday
7,4.3
8,36.0
9,113.0
10,19.12
11,0.0
12,0.0
13,176.16360703090265
14,1.0
15,38.75598486782653
16,172.35568911400415
17,22.529273858911814
18,22.529273858911814
19,55.949420120253976
20,1.0
21,38.75598486782653
22,176.16360703090265
23,80.95539372186016
24,6.248768232330442
25,4.879598347115629
26,6.967342841527674
27,15.280639312973193
28,6.159494130465067
29,3.5201294757983663
30,6.159493772431324
31,3.5201257731419173
32,6.476797830847013
33,6.478523261539893
34,6.247991554033021
35,1.13898003495974
36,4.704425832819652
37,2.9420156784218534
38,6.2428068612299805
39,0.0
2,1, 4, 1, 0, 8, 0.00,15.00,Saturday
7,4.475
8,40.0
9,117.0
10,19.12
11,0.0
12,0.0
13,225.44463238443652
14,1.0
15,49.86541787911091
16,175.00763706072706
17,25.23396744277797
18,25.23396744277797
19,64.82296932280055
20,1.0
21,49.86541787911091
22,225.44463238443652
23,140.17799773708853
24,6.409528824589435
25,5.981159519449865
26,7.056150739345005
27,15.588683415663974
28,6.258961642568725
29,3.880160722597125
30,6.2589616498316225
31,3.880160848884052
32,6.480746981374785
33,6.476797830847013
34,6.351408876060183
35,1.9868745454843888
36,4.932583666676919
37,3.221588961205896
38,6.296796877253785
39,0.0
2,1, 4, 1, 0, 8,15.00,30.00,Saturday
7,4.65
8,44.0
9,121.0
10,19.12
11,0.0
12,0.0
13,284.32774329239925
14,1.0
15,61.25880853357654
16,177.8974089681105
17,27.90714451366148
18,27.90714451366148
19,73.90919236532623
20,1.0
21,61.25880853357654
22,284.32774329239925
23,208.8282571344974
24,6.545654461490654
25,7.0651135798846
26,7.146501596462821
27,15.936081839899506
28,6.358683495673982
29,4.237954821468388
30,6.358683495729707
31,4.237954818203172
32,6.48930405793413
33,6.480746981374785
34,6.446890795273524
35,2.8298989456489005
36,5.165697643433759
37,3.496288389014012
38,6.352464014919525
39,0.0
2,1, 4, 1, 0, 8,30.00,45.00,Saturday
7,4.825
8,55.5
9,113.75
10,19.12
11,0.0
12,0.0
13,376.7432946886986
14,1.0
15,75.44232155634496
16,180.0050309261222
17,34.193708604410936
18,34.193708604410936
19,87.51577986923823
20,1.0
21,75.44232155634496
22,376.7432946886986
23,312.57292744117024
24,6.7370694968083145
25,8.38460289167397
26,7.268025714483174
27,16.21676727044829
28,6.5284139717430065
29,4.900127222196693
30,6.528413971720276
31,4.900127222202149
32,6.506829591510545
33,6.48930405793413
34,6.597759601711827
35,4.06941664674212
36,5.428559986209052
37,3.7911270322197197
38,6.4160361043251966
39,0.0
2,1, 4, 1, 0, 8,45.00,60.00,Saturday
7,5.0
8,67.0
9,106.5
10,19.12
11,0.0
12,0.0
13,470.6688499772581
14,1.0
15,89.00120442506667
16,180.85044615449408
17,40.30849230468982
18,40.30849230468982
19,100.53017850377606
20,1.0
21,89.00120442506667
22,470.6688499772581
23,416.55734007057436
24,6.906737716388586
25,9.60573201127471
26,7.374828740542867
27,16.40466512470617
28,6.664571580843047
29,5.509295530554414
30,6.664571580845236
31,5.509295530559701
32,6.529368001747941
33,6.506829591510545
34,6.734153839043792
35,5.223136899774996
36,5.700380416898042
37,4.079461507300493
38,6.493480425711903
39,0.0
2,1, 4, 1, 0, 9, 0.00,15.00,Saturday
7,5.15
8,78.5
9,99.25
10,19.12
11,0.0
12,0.0
13,513.3094079869378
14,1.0
15,93.33914152308334
16,160.7861237385305
17,45.82757915649707
18,45.82757915649707
19,112.9576471668033
20,1.0
21,93.33914152308334
22,513.3094079869378
23,463.27931775019186
24,6.969587739471602
25,9.840415201031421
26,7.310400185418683
27,14.645654017858545
28,6.75288249710637
29,6.03279602966213
30,6.7528824971062305
31,6.03279602966165
32,6.551100865886656
33,6.529368001747941
34,6.812032567853643
35,6.224303535933535
36,5.8626996834640295
37,4.250557209851365
38,6.573694952599117
39,0.0
2,1, 4, 1, 0, 9,15.00,30.00,Saturday
7,5.3
8,90.0
9,92.0
10,19.12
11,0.0
12,0.0
13,593.5188336075435
14,1.0
15,104.1309108161439
16,159.74565239873414
17,51.612260714599344
18,51.612260714599344
19,124.80799848872908
20,1.0
21,104.1309108161439
22,593.5188336075435
23,552.0434355212319
24,7.119917529747742
25,10.647934703122424
26,7.415158705698
27,14.587924990671361
28,6.892238681908318
29,6.559568472863827
30,6.892238681908336
31,6.559568472863854
32,6.5805733622502
33,6.551100865886656
34,6.943205118889626
35,7.139366870484121
36,6.073979801048608
37,4.482707942884986
38,6.657989779168081
39,0.0
2,1, 4, 1, 0, 9,30.00,45.00,Saturday
7,5.449999999999999
8,102.5
9,84.25
10,19.12
11,0.0
12,0.0
13,671.9183083802725
14,1.0
15,114.77406766195406
16,158.8353843332844
17,57.69917924589785
18,57.69917924589785
19,136.89138495117555
20,1.0
21,114.77406766195406
22,671.9183083802725
23,638.1103479606246
24,7.254780540420879
25,11.360170664404242
26,7.497901782051802
27,14.384994767219366
28,7.0257895682807945
29,7.086216418317336
30,7.0257895682807945
31,7.086216418317344
32,6.614025762090423
33,6.5805733622502
34,7.0685923499382906
35,7.996077632288298
36,6.303712540877655
37,4.720868721862075
38,6.749057967333752
39,0.0
2,1, 4, 1, 0, 9,45.00,60.00,Saturday
7,5.6
8,115.0
9,76.5
10,19.12
11,0.0
12,0.0
13,744.2880923543753
14,1.0
15,124.74567696610505
16,157.53216518459288
17,63.621555912371264
18,63.621555912371264
19,148.40204850044753
20,1.0
21,124.74567696610505
22,744.2880923543753
23,717.6741423266416
24,7.387050430084728
25,11.9926007946007
26,7.584429306843682
27,14.178658469439773
28,7.159278239136494
29,7.5821824261938255
30,7.164246016707225
31,7.651627160671452
32,6.651389695302603
33,6.614025762090423
34,7.193369610452689
35,8.75634515995151
36,6.523911887349868
37,4.949094286048194
38,6.846459301592905
39,0.0
2,1, 4, 1, 0,10, 0.00,15.00,Saturday
7,5.674999999999999
8,127.5
9,68.75
10,19.12
11,0.0
12,0.0
13,728.7772456582592
14,1.0
15,120.43979022271081
16,138.1731509041723
17,68.19405429513772
18,68.19405429513772
19,159.365027537659
20,1.0
21,120.43979022271081
22,728.7772456582592
23,700.4926863716217
24,7.370057612264374
25,11.30599592961306
26,7.492646919395241
27,12.340662804564769
28,7.205636405356696
29,7.862853716153146
30,7.206814769463705
31,7.8832929877737925
32,6.683296011507496
33,6.651389695302603
34,7.2299659181102705
35,9.300192225355433
36,6.58639754288663
37,5.0253715709581
38,6.932894917040835
39,0.0
2,1, 4, 1, 0,10,15.00,30.00,Saturday
7,5.75
8,140.0
9,61.0
10,19.12
11,0.0
12,0.0
13,780.4592881824269
14,1.0
15,127.75243865389722
16,136.80721528677026
17,73.87313177692067
18,73.87313177692067
19,169.8095404579071
20,1.0
21,127.75243865389722
22,780.4592881824269
23,758.5113768491511
24,7.469916803482717
25,11.512618409079899
26,7.575648059056734
27,12.126374420882282
28,7.32008230799388
29,8.208899123613977
30,7.317692506580422
31,8.1765468385482
32,6.722059747974018
33,6.683296011507496
34,7.335038484033618
35,9.756455447965601
36,6.74142510094498
37,5.204874929775883
38,7.009375188672575
39,0.0
2,1, 4, 1, 0,10,30.00,45.00,Saturday
7,5.825000000000001
8,143.5
9,63.25
10,19.12
11,0.0
12,0.0
13,824.7233057103084
14,1.0
15,134.07958523595687
16,135.13673355137644
17,75.91958346371965
18,75.91958346371965
19,175.88964590458343
20,1.0
21,134.07958523595687
22,824.7233057103084
23,807.8053759347042
24,7.530222045786651
25,11.603178998335355
26,7.614661636810539
27,11.845942229368324
28,7.382783147611328
29,8.304998090063796
30,7.376863261673121
31,8.219716520355306
32,6.761529847055957
33,6.722059747974018
34,7.397209349895998
35,9.91292273403835
36,6.908287909414696
37,5.379938670008528
38,7.079605149703258
39,0.0
2,1, 4, 1, 0,10,45.00,60.00,Saturday
7,5.9
8,147.0
9,65.5
10,19.12
11,0.0
12,0.0
13,868.8115989863777
14,1.0
15,140.42444392958495
16,133.19225862344618
17,77.92912695231121
18,77.92912695231121
19,181.95184069180033
20,1.0
21,140.42444392958495
22,868.8115989863777
23,857.7158525368418
24,7.594342338038606
25,11.695678222325194
26,7.658884147867891
27,11.587643216081192
28,7.4504095758203635
29,8.407713157888177
30,7.441045852480824
31,8.271165544991426
32,6.8027750335879915
33,6.761529847055957
34,7.462968581286253
35,10.070916148940933
36,7.058018638186468
37,5.541765453176708
38,7.145535054267819
39,0.0
2,1, 4, 1, 0,11, 0.00,15.00,Saturday
7,5.9750000000000005
8,150.5
9,67.75
10,19.12
11,0.0
12,0.0
13,913.871837564169
14,1.0
15,146.75017262273548
16,130.89994040628983
17,79.90463492959329
18,79.90463492959329
19,187.9771784854607
20,1.0
21,146.75017262273548
22,913.871837564169
23,907.7976390480146
24,7.682237443209689
25,11.976887588612481
26,7.724895445440194
27,11.49265769914232
28,7.537477434198253
29,8.628393190216777
30,7.525411482613693
31,8.450486336009128
32,6.84730802667618
33,6.8027750335879915
34,7.549399845588661
35,10.518935103532444
36,7.250076310034615
37,5.774216756570468
38,7.210635642949087
39,0.0
2,1, 4, 1, 0,11,15.00,30.00,Saturday
7,6.050000000000001
8,154.0
9,70.0
10,19.12
11,0.0
12,0.0
13,1069.1085360463833
14,1.0
15,171.35549562983385
16,140.37198498440387
17,82.58577750398626
18,82.58577750398626
19,193.94647498488314
20,1.0
21,171.35549562983385
22,1069.1085360463833
23,1077.4174216663923
24,7.883232482065182
25,13.183384566158614
26,7.901322785491504
27,12.065471289689258
28,7.693183946634765
29,8.88421119514682
30,7.6782008495660286
31,8.660121645734497
32,6.902398069791074
33,6.84730802667618
34,7.711385082296383
35,10.92850652822653
36,7.629011517225763
37,6.178392187426027
38,7.288819697081622
39,0.0
2,1, 4, 1, 0,11,30.00,45.00,Saturday
7,6.125
8,155.75
9,72.0
10,19.12
11,0.0
12,0.0
13,1105.210077763279
14,1.0
15,176.56806565194535
16,134.49237577681637
17,83.60951386283342
18,83.60951386283342
19,197.94392224022835
20,1.0
21,176.56806565194535
22,1105.210077763279
23,1117.5623418910975
24,7.944886291608636
25,13.322119837915695
26,7.936905038852884
27,11.7568353903749
28,7.761894963069417
29,9.03657131682635
30,7.744371198597642
31,8.77312358640429
32,6.953456669413874
33,6.902398069791074
34,7.780500983887995
35,11.217234628543592
36,7.820009830811841
37,6.387054197644488
38,7.374975863328089
39,0.0
2,1, 4, 1, 0,11,45.00,60.00,Saturday
7,6.2
8,157.5
9,74.0
10,19.12
11,0.0
12,0.0
13,1139.570489637989
14,1.0
15,181.56777049081964
16,128.2303058758587
17,84.61026980688945
18,84.61026980688945
19,201.84014944168914
20,1.0
21,181.56777049081964
22,1139.570489637989
23,1156.9155344903197
24,8.027776477948171
25,13.47126637513882
26,7.993874107522203
27,11.471517969440914
28,7.846810780370782
29,9.18929639312784
30,7.8266315060730705
31,8.885795826486452
32,7.006757585892317
33,6.953456669413874
34,7.863040231214964
35,11.491863665120542
36,7.979373552634286
37,6.582285704682931
38,7.459870036797504
39,0.0
2,1, 4, 1, 0,12, 0.00,15.00,Saturday
7,6.25
8,159.25
9,76.0
10,19.12
11,0.0
12,0.0
13,1173.3746853112464
14,1.0
15,186.319112947946
16,121.56736558275634
17,85.59127683390491
18,85.59127683390491
19,205.61768273134768
20,1.0
21,186.319112947946
22,1173.3746853112464
23,1195.4464462752767
24,8.130281531853335
25,13.842855647823878
26,8.061519509598076
27,11.28041788438173
28,7.940386063991823
29,9.397947031204058
30,7.919320847004067
31,9.078916822440226
32,7.062759035900347
33,7.006757585892317
34,7.956994656640292
35,11.958558111460603
36,8.141475340076397
37,6.778407111921524
38,7.541936477669065
39,0.0
2,1, 4, 1, 0,12,15.00,30.00,Saturday
7,6.300000000000001
8,161.0
9,78.0
10,19.12
11,0.0
12,0.0
13,1203.6304575863514
14,1.0
15,190.78751738951496
16,114.49404001410585
17,86.55480520291187
18,86.55480520291187
19,209.25935033636404
20,1.0
21,190.78751738951496
22,1203.6304575863514
23,1230.1669158847792
24,8.228384046250659
25,14.196260228638067
26,8.125010211585547
27,11.0655527114242
28,8.031465632528533
29,9.605011352469543
30,8.009428700422818
31,9.270630024701612
32,7.120420238801515
33,7.062759035900347
34,8.048635633996215
35,12.414523187719784
36,8.302574810857038
37,6.972390400651193
38,7.622605392122914
39,0.0
2,1, 4, 1, 0,12,30.00,45.00,Saturday
7,6.3500000000000005
8,160.5
9,75.75
10,19.12
11,0.0
12,0.0
13,1196.1383950956051
14,1.0
15,189.50328196109962
16,104.9827290574819
17,86.23233909372743
18,86.23233909372743
19,207.84223037920586
20,1.0
21,189.50328196109962
22,1196.1383950956051
23,1224.3479233669345
24,8.290319791016316
25,14.274438960511747
26,8.159979783363449
27,10.720661932407275
28,8.097838773254315
29,9.742924700020659
30,8.075263550388554
31,9.400296056757078
32,7.1762596172565445
33,7.120420238801515
34,8.112532138341379
35,12.64509937214427
36,8.40789929370169
37,7.119832794284605
38,7.699320413888643
39,0.0
2,1, 4, 1, 0,12,45.00,60.00,Saturday
7,6.4
8,160.0
9,73.5
10,19.12
11,0.0
12,0.0
13,1185.555153893713
14,1.0
15,187.81397544498626
16,95.76010158807046
17,85.89119227156687
18,85.89119227156687
19,206.22306190657338
20,1.0
21,187.81397544498626
22,1185.555153893713
23,1215.5803190883667
24,8.353217047426089
25,14.338687943679298
26,8.197113546284912
27,10.393114107976128
28,8.165207876092312
29,9.88079974031242
30,8.142047398563498
31,9.529648516569633
32,7.232152156345345