Program Version,EnergyPlus, Version 23.2.0-7636e6b3e9, YMD=2026.07.21 21:27
1,5,Environment Title[],Latitude[deg],Longitude[deg],Time Zone[],Elevation[m]
2,8,Day of Simulation[],Month[],Day of Month[],DST Indicator[1=yes 0=no],Hour[],StartMinute[],EndMinute[],DayType
3,5,Cumulative Day of Simulation[],Month[],Day of Month[],DST Indicator[1=yes 0=no],DayType  ! When Daily Report Variables Requested
4,2,Cumulative Days of Simulation[],Month[]  ! When Monthly Report Variables Requested
5,1,Cumulative Days of Simulation[] ! When Run Period Report Variables Requested
6,1,Calendar Year of Simulation[] ! When Annual Report Variables Requested
7,1,Environment,Site Outdoor Air Drybulb Temperature [C] !TimeStep
8,1,Environment,Site Diffuse Solar Radiation Rate per Area [W/m2] !TimeStep
9,1,Environment,Site Direct Solar Radiation Rate per Area [W/m2] !TimeStep
10,1,Environment,Site Ground Temperature [C] !TimeStep
11,1,ZONE ONE,Zone Total Internal Radiant Heating Rate [W] !TimeStep
12,1,ZONE ONE,Zone Total Internal Convective Heating Rate [W] !TimeStep
13,1,ZONE ONE,Zone Windows Total Transmitted Solar Radiation Rate [W] !TimeStep
14,1,ZN001:WALL001,Surface Outside Face Sunlit Fraction [] !TimeStep
15,1,ZN001:WALL001,Surface Outside Face Incident Solar Radiation Rate per Area [W/m2] !TimeStep
16,1,ZN001:WALL002,Surface Outside Face Incident Solar Radiation Rate per Area [W/m2] !TimeStep
17,1,ZN001:WALL003,Surface Outside Face Incident Solar Radiation Rate per Area [W/m2] !TimeStep
18,1,ZN001:WALL004,Surface Outside Face Incident Solar Radiation Rate per Area [W/m2] !TimeStep
19,1,ZN001:ROOF001,Surface Outside Face Incident Solar Radiation Rate per Area [W/m2] !TimeStep
20,1,ZN001:WALL001:WIN001,Surface Outside Face Sunlit Fraction [] !TimeStep
21,1,ZN001:WALL001:WIN001,Surface Outside Face Incident Solar Radiation Rate per Area [W/m2] !TimeStep
22,1,ZN001:WALL001:WIN001,Surface Window Transmitted Solar Radiation Rate [W] !TimeStep
23,1,ZN001:WALL001:WIN001,Surface Window Net Heat Transfer Rate [W] !TimeStep
24,1,ZN001:WALL001,Surface Inside Face Temperature [C] !TimeStep
25,1,ZN001:WALL001,Surface Outside Face Temperature [C] !TimeStep
26,1,ZN001:WALL002,Surface Inside Face Temperature [C] !TimeStep
27,1,ZN001:WALL002,Surface Outside Face Temperature [C] !TimeStep
28,1,ZN001:WALL003,Surface Inside Face Temperature [C] !TimeStep
29,1,ZN001:WALL003,Surface Outside Face Temperature [C] !TimeStep
30,1,ZN001:WALL004,Surface Inside Face Temperature [C] !TimeStep
31,1,ZN001:WALL004,Surface Outside Face Temperature [C] !TimeStep
32,1,ZN001:FLR001,Surface Inside Face Temperature [C] !TimeStep
33,1,ZN001:FLR001,Surface Outside Face Temperature [C] !TimeStep
34,1,ZN001:ROOF001,Surface Inside Face Temperature [C] !TimeStep
35,1,ZN001:ROOF001,Surface Outside Face Temperature [C] !TimeStep
36,1,ZN001:WALL001:WIN001,Surface Inside Face Temperature [C] !TimeStep
37,1,ZN001:WALL001:WIN001,Surface Outside Face Temperature [C] !TimeStep
38,1,ZONE ONE,Zone Mean Air Temperature [C] !TimeStep
39,1,ZONE ONE,Zone Air Heat Balance Outdoor Air Transfer Rate [W] !TimeStep
End of Data Dictionary
1,RUN PERIOD 1,  55.95,  -3.37,   0.00,  41.10
2,1,10, 1, 0, 1, 0.00,15.00,Sunday
7,11.325
8,0.0
9,0.0
10,19.21
11,0.0
12,0.0
13,0.0
14,0.0
15,0.0
16,0.0
17,0.0
18,0.0
19,0.0
20,0.0
21,0.0
22,0.0
23,-302.52648752734666
24,18.963464605493215
25,8.53813765874843
26,18.946568525968512
27,8.610163065357195
28,18.946602238707467
29,8.610302825663423
30,18.94208217248888
31,8.537255009361548
32,20.58129275546112
33,20.653000342669717
34,19.266640211033838
35,3.0158677400423888
36,15.345548082477194
37,11.024843428536883
38,19.671126303616745
39,0.0
2,1,10, 1, 0, 1,15.00,30.00,Sunday
7,11.45
8,0.0
9,0.0
10,19.21
11,0.0
12,0.0
13,0.0
14,0.0
15,0.0
16,0.0
17,0.0
18,0.0
19,0.0
20,0.0
21,0.0
22,0.0
23,-299.9726488342043
24,18.86928515988907
25,8.335812622030568
26,18.85717244404299
27,8.484202222902786
28,18.857169832079393
29,8.484194053497099
30,18.848213220620302
31,8.33487472379602
32,20.508269558972152
33,20.58129275546112
34,19.16128682649552
35,2.0384734816942967
36,15.296547721612114
37,11.010932862458844
38,19.590390855085502
39,0.0
2,1,10, 1, 0, 1,30.00,45.00,Sunday
7,11.575
8,0.0
9,0.0
10,19.21
11,0.0
12,0.0
13,0.0
14,0.0
15,0.0
16,0.0
17,0.0
18,0.0
19,0.0
20,0.0
21,0.0
22,0.0
23,-297.7479641096587
24,18.76456302758707
25,8.08641955562158
26,18.757382692975455
27,8.313710722891988
28,18.757382901403428
29,8.313711413098881
30,18.74382711193743
31,8.085426553042513
32,20.433253915051683
33,20.508269558972152
34,19.042935314917194
35,0.8141489561069568
36,15.23791460800112
37,10.982346357650727
38,19.50305544055707
39,0.0
2,1,10, 1, 0, 1,45.00,60.00,Sunday
7,11.7
8,0.0
9,0.0
10,19.21
11,0.0
12,0.0
13,0.0
14,0.0
15,0.0
16,0.0
17,0.0
18,0.0
19,0.0
20,0.0
21,0.0
22,0.0
23,-295.80227607158093
24,18.650776250792788
25,7.799833641322314
26,18.64725257994606
27,8.086035944724653
28,18.647252562207488
29,8.086035875146626
30,18.630358339220876
31,7.798787438755201
32,20.35593021882724
33,20.433253915051683
34,18.91162309627803
35,-0.6897903980319975
36,15.167771465596502
37,10.937800392013855
38,19.4080195229546
39,0.0
2,1,10, 1, 0, 2, 0.00,15.00,Sunday
7,11.849999999999998
8,0.0
9,0.0
10,19.21
11,0.0
12,0.0
13,0.0
14,0.0
15,0.0
16,0.0
17,0.0
18,0.0
19,0.0
20,0.0
21,0.0
22,0.0
23,-290.95670315026734
24,18.587066598820314
25,7.887833558909263
26,18.583198569766854
27,8.169752247263448
28,18.583198571257242
29,8.169752253793044
30,18.566741397184686
31,7.886766509608587
32,20.280863545170305
33,20.35593021882724
34,18.84037631993126
35,-0.7434040697573574
36,15.12960036465438
37,10.968396670101129
38,19.316400194478224
39,0.0
2,1,10, 1, 0, 2,15.00,30.00,Sunday
7,12.0
8,0.0
9,0.0
10,19.21
11,0.0
12,0.0
13,0.0
14,0.0
15,0.0
16,0.0
17,0.0
18,0.0
19,0.0
20,0.0
21,0.0
22,0.0
23,-286.72990248710573
24,18.514520199026077
25,7.948426046148768
26,18.51133135261294
27,8.235721798577583
28,18.5113313524839
29,8.235721797973683
30,18.494471673106844
31,7.947366174216938
32,20.20529889993205
33,20.280863545170305
34,18.759261289723156
35,-0.9034648756531902
36,15.107868625186484
37,11.0064781749943
38,19.23387320217101
39,0.0
2,1,10, 1, 0, 2,30.00,45.00,Sunday
7,12.150000000000002
8,0.0
9,0.0
10,19.21
11,0.0
12,0.0
13,0.0
14,0.0
15,0.0
16,0.0
17,0.0
18,0.0
19,0.0
20,0.0
21,0.0
22,0.0
23,-282.54358492000006
24,18.447464233125444
25,8.011799457319562
26,18.444688709860554
27,8.301829001098294
28,18.4446887098719
29,8.301829001154484
30,18.427651740652703
31,8.010746109158545
32,20.130107576751172
33,20.20529889993205
34,18.683361758034145
35,-1.0593828958900406
36,15.085284259163927
37,11.043659591686946
38,19.158742828715003
39,0.0
2,1,10, 1, 0, 2,45.00,60.00,Sunday
7,12.3
8,0.0
9,0.0
10,19.21
11,0.0
12,0.0
13,0.0
14,0.0
15,0.0
16,0.0
17,0.0
18,0.0
19,0.0
20,0.0
21,0.0
22,0.0
23,-278.4972419116186
24,18.383336136840597
25,8.074934688359628
26,18.380905747125652
27,8.366318423503065
28,18.380905747124633
29,8.366318423497757
30,18.363769520009196
31,8.07388931515492
32,20.055449161663184
33,20.130107576751172
34,18.610202292516384
35,-1.2193254578758874
36,15.065763958484126
37,11.082186233890297
38,19.08765726896175
39,0.0
2,1,10, 1, 0, 3, 0.00,15.00,Sunday
7,12.425
8,0.0
9,0.0
10,19.21
11,0.0
12,0.0
13,0.0
14,0.0
15,0.0
16,0.0
17,0.0
18,0.0
19,0.0
20,0.0
21,0.0
22,0.0
23,-274.638374610757
24,18.329024335726928
25,8.182729972770069
26,18.326906676697547
27,8.475911003328031
28,18.326906676697657
29,8.475911003328521
30,18.309632910669325
31,8.181699013174288
32,19.9820570023157
33,20.055449161663184
34,18.550809812023623
35,-1.0752670229270307
36,15.0466239977099
37,11.118563322156206
38,19.020048317251387
39,0.0
2,1,10, 1, 0, 3,15.00,30.00,Sunday
7,12.55
8,0.0
9,0.0
10,19.21
11,0.0
12,0.0
13,0.0
14,0.0
15,0.0
16,0.0
17,0.0
18,0.0
19,0.0
20,0.0
21,0.0
22,0.0
23,-270.89637965604777
24,18.275067096208424
25,8.287358300234606
26,18.27332824819611
27,8.582884653248776
28,18.273328248196098
29,8.582884653248719
30,18.255886136618578
31,8.286342423310751
32,19.909460807735545
33,19.9820570023157
34,18.491215999427432
35,-0.956035772498401
36,15.032456677727566
37,11.158131911610553
38,18.955655340251642
39,0.0
2,1,10, 1, 0, 3,30.00,45.00,Sunday
7,12.675
8,0.0
9,0.0
10,19.21
11,0.0
12,0.0
13,0.0
14,0.0
15,0.0
16,0.0
17,0.0
18,0.0
19,0.0
20,0.0
21,0.0
22,0.0
23,-267.1716826164223
24,18.223168140541546
25,8.392874143866567
26,18.221769859621382
27,8.690269443572333
28,18.22176985962137
29,8.690269443572333
30,18.204193132979334
31,8.391873633455388
32,19.837787421949272
33,19.909460807735545
34,18.433696931897128
35,-0.8336098685907691
36,15.019545916527363
37,11.198815304942855
38,18.89375254688966
39,0.0
2,1,10, 1, 0, 3,45.00,60.00,Sunday
7,12.8
8,0.0
9,0.0
10,19.21
11,0.0
12,0.0
13,0.0
14,0.0
15,0.0
16,0.0
17,0.0
18,0.0
19,0.0
20,0.0
21,0.0
22,0.0
23,-263.47344678833343
24,18.172764387619512
25,8.498822591989068
26,18.171691538906728
27,8.797781509584434
28,18.171691538906735
29,8.797781509584434
30,18.15399837919521
31,8.49783756229191
32,19.767061709183814
33,19.837787421949272
34,18.377657735588883
35,-0.7105120300214314
36,15.008316186233515
37,11.240864049022377
38,18.83363776963576
39,0.0
2,1,10, 1, 0, 4, 0.00,15.00,Sunday
7,12.875000000000002
8,0.0
9,0.0
10,19.21
11,0.0
12,0.0
13,0.0
14,0.0
15,0.0
16,0.0
17,0.0
18,0.0
19,0.0
20,0.0
21,0.0
22,0.0
23,-260.6612727003266
24,18.119184801073445
25,8.563053463442786
26,18.118377941697915
27,8.863499306003247
28,18.11837794169789
29,8.863499306003249
30,18.100578627635162
31,8.562087541417894
32,19.697016178125587
33,19.767061709183814
34,18.32032615735107
35,-0.6107771735376833
36,14.984609295668179
37,11.25349807090754
38,18.774189884707187
39,0.0
2,1,10, 1, 0, 4,15.00,30.00,Sunday
7,12.95
8,0.0
9,0.0
10,19.21
11,0.0
12,0.0
13,0.0
14,0.0
15,0.0
16,0.0
17,0.0
18,0.0
19,0.0
20,0.0
21,0.0
22,0.0
23,-257.86262027101543
24,18.067027367035926
25,8.63105108528978
26,18.066413928633732
27,8.931798659683551
28,18.066413928633743
29,8.931798659683563
30,18.04858202242114
31,8.630097472731617
32,19.627789099665243
33,19.697016178125587
34,18.264158205558847
35,-0.5087531954020328
36,14.962029579675118
37,11.270173904349122
38,18.714905741966465
39,0.0
2,1,10, 1, 0, 4,30.00,45.00,Sunday
7,13.024999999999999
8,0.0
9,0.0
10,19.21
11,0.0
12,0.0
13,0.0
14,0.0
15,0.0
16,0.0
17,0.0
18,0.0
19,0.0
20,0.0
21,0.0
22,0.0
23,-255.0857122423436
24,18.01525915618987
25,8.699036732432205
26,18.01483380194336
27,8.999919525038129
28,18.014833801943357
29,8.999919525038129
30,17.996974431264416
31,8.698095439658568
32,19.559323579396093
33,19.627789099665243
34,18.208431514421292
35,-0.4065183489356718
36,14.939911570916138
37,11.287579946710196
38,18.65588163188075
39,0.0
2,1,10, 1, 0, 4,45.00,60.00,Sunday
7,13.1
8,0.0
9,0.0
10,19.21
11,0.0
12,0.0
13,0.0
14,0.0
15,0.0
16,0.0
17,0.0
18,0.0
19,0.0
20,0.0
21,0.0
22,0.0
23,-252.30835661770274
24,17.96404616916273
25,8.767368239858644
26,17.96379047034557
27,9.06808677377391
28,17.96379047034555
29,9.06808677377391
30,17.94592153688286
31,8.766439208740753
32,19.491606099929644
33,19.559323579396093
34,18.153271508771976
35,-0.30394311879042235
36,14.918309392042715
37,11.305581231933957
38,18.597350073827787
39,0.0
2,1,10, 1, 0, 5, 0.00,15.00,Sunday
7,13.174999999999999
8,0.0
9,0.0
10,19.21
11,0.0
12,0.0
13,0.0
14,0.0
15,0.0
16,0.0
17,0.0
18,0.0
19,0.0
20,0.0
21,0.0
22,0.0
23,-248.5130213812257
24,17.91664645498726
25,8.861853160225882
26,17.91655014147412
27,9.160967802973587
28,17.916550141474158
29,9.16096780297359
30,17.898755849468163
31,8.860929412668478
32,19.42487061866055
33,19.491606099929644
34,18.101525730583013
35,-0.15489727097777167
36,14.913046043987208
37,11.359654876109687
38,18.540055405568705
39,0.0
2,1,10, 1, 0, 5,15.00,30.00,Sunday
7,13.25
8,0.0
9,0.0
10,19.21
11,0.0
12,0.0
13,0.0
14,0.0
15,0.0
16,0.0
17,0.0
18,0.0
19,0.0
20,0.0
21,0.0
22,0.0
23,-244.72195966423922
24,17.869712792449008
25,8.954391230164674
26,17.869815921959045
27,9.252486065347899
28,17.86981592195903
29,9.25248606534789
30,17.85205514501767
31,8.95347902665429
32,19.358989882618346
33,19.42487061866055
34,18.05032950792355
35,-0.009369014045992401
36,14.908634371844471
37,11.410196048212583
38,18.484300702744125
39,0.0
2,1,10, 1, 0, 5,30.00,45.00,Sunday
7,13.325000000000001
8,0.0
9,0.0
10,19.21
11,0.0
12,0.0
13,0.0
14,0.0
15,0.0
16,0.0
17,0.0
18,0.0
19,0.0
20,0.0
21,0.0
22,0.0
23,-240.9491013478174
24,17.82395533697612
25,9.04714700782744
26,17.82424839331059
27,9.344144818570157
28,17.824248393310558
29,9.344144818570168
30,17.80652949360219
31,9.046246796328647
32,19.294004728275272
33,19.358989882618346
34,18.00030587466046
35,0.1363579119379948
36,14.905017922452316
37,11.461154305606271
38,18.42992467036503
39,0.0
2,1,10, 1, 0, 5,45.00,60.00,Sunday
7,13.4
8,0.0
9,0.0
10,19.21
11,0.0
12,0.0
13,0.0
14,0.0
15,0.0
16,0.0
17,0.0
18,0.0
19,0.0
20,0.0
21,0.0
22,0.0
23,-237.20666759048996
24,17.77921565976784
25,9.139908162498996
26,17.779698762882504
27,9.435815916124602
28,17.779698762882486
29,9.43581591612461
30,17.76202152918878
31,9.139019823618666
32,19.229920813766505
33,19.294004728275272
34,17.95131352276307
35,0.2819828070710181
36,14.902260240715918
37,11.512529181525053
38,18.376676859043254
39,0.0
2,1,10, 1, 0, 6, 0.00,15.00,Sunday
7,13.475000000000001
8,0.0
9,0.0
10,19.21
11,0.0
12,0.0
13,0.0
14,0.0
15,0.0
16,0.0
17,0.0
18,0.0
19,0.0
20,0.0
21,0.0
22,0.0
23,-232.85861526250517
24,17.75137053175379
25,9.337649583227268
26,17.75114492849359
27,9.619060040370561
28,17.751144928493595
29,9.619060040370561
30,17.734333700254652
31,9.336781091105273
32,19.168060864054805
33,19.229920813766505
34,17.92336470270597
35,0.8980756580245827
36,14.909164525404492
37,11.582250143723854
38,18.32738323425271
39,0.0
2,1,10, 1, 0, 6,15.00,30.00,Sunday
7,13.55
8,0.0
9,0.0
10,19.21
11,0.0
12,0.0
13,0.0
14,0.0
15,0.0
16,0.0
17,0.0
18,0.0
19,0.0
20,0.0
21,0.0
22,0.0
23,-228.73150812420565
24,17.722983052005798
25,9.527298572530215
26,17.721981695402697
27,9.791653137882998
28,17.721981695402707
29,9.791653137882998
30,17.70615695975548
31,9.526456719718768
32,19.107625855701126
33,19.168060864054805
34,17.89401036154269
35,1.4580146310772168
36,14.923035348265103
37,11.655729466914465
38,18.28307181623746
39,0.0
2,1,10, 1, 0, 6,30.00,45.00,Sunday
7,13.624999999999998
8,0.0
9,0.0
10,19.21
11,0.0
12,0.0
13,0.0
14,0.0
15,0.0
16,0.0
17,0.0
18,0.0
19,0.0
20,0.0
21,0.0
22,0.0
23,-224.63866235252524
24,17.69826278344702
25,9.715908462481396
26,17.696225952305227
27,9.959476065681592
28,17.69622595230524
29,9.95947606568159
30,17.681626217428228
31,9.715094302972638
32,19.048932157373283
33,19.107625855701126
34,17.867865674849163
35,1.996673376855097
36,14.93823125231944
37,11.730214681464872
38,18.242830084757625
39,0.0
2,1,10, 1, 0, 6,45.00,60.00,Sunday
7,13.7
8,0.0
9,0.0
10,19.21
11,0.0
12,0.0
13,0.0
14,0.0
15,0.0
16,0.0
17,0.0
18,0.0
19,0.0
20,0.0
21,0.0
22,0.0
23,-220.61342560450473
24,17.674466180553036
25,9.901893414251456
26,17.67127222286056
27,10.122341149528898
28,17.671272222860548
29,10.122341149528898
30,17.65804187634186
31,9.901108534605651
32,18.991785882037384
33,19.048932157373283
34,17.842379959472662
35,2.510604878672494
36,14.955797601565564
37,11.806163310245665
38,18.20520486888859
39,0.0
2,1,10, 1, 0, 7, 0.00,15.00,Sunday
7,13.7
8,0.0
9,0.0
10,19.21
11,0.0
12,0.0
13,0.0
14,0.0
15,0.0
16,0.0
17,0.0
18,0.0
19,0.0
20,0.0
21,0.0
22,0.0
23,-219.19360327535477
24,17.61733469102352
25,9.836046003893165
26,17.616039512316597
27,10.081232371181773
28,17.616039512316608
29,10.081232371181782
30,17.60117693073286
31,9.835276170104805
32,18.933518010783832
33,18.991785882037384
34,17.78078587143952
35,2.2203130680702015
36,14.936810261686162
37,11.806989766960783
38,18.163327336915618
39,0.0
2,1,10, 1, 0, 7,15.00,30.00,Sunday
7,13.7
8,12.0
9,37.0
10,19.21
11,0.0
12,0.0
13,66.0914755326633
14,1.0
15,14.572516029548623
16,64.32874732292437
17,7.0385962154725
18,7.0385962154725
19,12.481530936004383
20,1.0
21,14.572516029548623
22,66.0914755326633
23,-142.09280464401627
24,17.74410754412593
25,11.069548321878296
26,18.00408621201338
27,15.331313184394297
28,17.706035920079163
29,10.625372146395053
30,17.69274602675908
31,10.405437180712193
32,18.890739974436237
33,18.933518010783832
34,17.86262918742024
35,3.1138879161132027
36,15.051708481576725
37,11.9743368263712
38,18.145415675087403
39,0.0
2,1,10, 1, 0, 7,30.00,45.00,Sunday
7,13.7
8,21.0
9,73.75
10,19.21
11,0.0
12,0.0
13,149.89197409400154
14,1.0
15,33.257138691740444
16,123.31895057188477
17,12.47847116986084
18,12.47847116986084
19,24.62556205349237
20,1.0
21,33.257138691740444
22,149.89197409400154
23,-45.867730371531785
24,17.90547702646752
25,12.696522856611649
26,18.39806448442697
27,20.245675712905303
28,17.797911176161417
29,11.036829477282179
30,17.785277109793856
31,10.83144059138564
32,18.85737526593075
33,18.890739974436237
34,17.955020178977126
35,3.9799730891309593
36,15.279257207850605
37,12.235064963016498
38,18.16482779218221
39,0.0
2,1,10, 1, 0, 7,45.00,60.00,Sunday
7,13.7
8,30.0
9,110.5
10,19.21
11,0.0
12,0.0
13,267.6261799332834
14,1.0
15,57.2828199848083
16,177.9307764841379
17,18.13616030614051
18,18.13616030614051
19,39.37789002996036
20,1.0
21,57.2828199848083
22,267.6261799332834
23,88.00560948721989
24,18.14714953433797
25,14.974079426123122
26,18.774260528575972
27,24.44291413813939
28,17.929687207183797
29,11.496961490681297
30,17.918536652666358
31,11.318218401416644
32,18.836794352009917
33,18.85737526593075
34,18.091916995006542
35,5.181625604983876
36,15.589445145433615
37,12.581390210485608
38,18.21979356248594
39,0.0
2,1,10, 1, 0, 8, 0.00,15.00,Sunday
7,13.849999999999998
8,39.0
9,147.25
10,19.21
11,0.0
12,0.0
13,402.711229450343
14,1.0
15,82.47588356524072
16,215.74345650585428
17,23.974924124253533
18,23.974924124253533
19,56.667688621263196
20,1.0
21,82.47588356524072
22,402.711229450343
23,239.7987741787536
24,18.40727605669787
25,17.213757831014846
26,19.000258051795697
27,26.6645495588599
28,18.077907180716412
29,12.079563725433188
30,18.068925367927104
31,11.937913992592717
32,18.827786044729976
33,18.836794352009917
34,18.2484083171974
35,6.917833769846786
36,15.93880839514054
37,12.95416176917206
38,18.30120496804421
39,0.0
2,1,10, 1, 0, 8,15.00,30.00,Sunday
7,14.0
8,48.0
9,184.0
10,19.21
11,0.0
12,0.0
13,635.7478874388996
14,1.0
15,122.05642374885646
16,278.6484481817678
17,31.32895627079624
18,31.32895627079624
19,76.4021202104453
20,1.0
21,122.05642374885646
22,635.7478874388996
23,498.5164522762743
24,18.808183123156308
25,20.417709558499435
26,19.445674061421546
27,30.903846662358227
28,18.322137586033
29,12.765276459648549
30,18.315827615008267
31,12.669630379251497
32,18.841404356232943
33,18.827786044729976
34,18.505539508207978
35,8.735035894934779
36,16.44418482671483
37,13.483998033659361
38,18.413049101155767
39,0.0
2,1,10, 1, 0, 8,30.00,45.00,Sunday
7,14.150000000000002
8,55.25
9,237.25
10,19.21
11,0.0
12,0.0
13,875.6951768936478
14,1.0
15,162.11337175022734
16,325.82630628778145
17,37.03656751556347
18,37.03656751556347
19,99.81639746620382
20,1.0
21,162.11337175022734
22,875.6951768936478
23,762.940732068614
24,19.13745395543826
25,23.228709056218324
26,19.75270513033644
27,33.4414670426684
28,18.54744756035511
29,13.289337326617245
30,18.54283602074323
31,13.225181791745213
32,18.87031062709719
33,18.841404356232943
34,18.757058143091434
35,10.74691370550015
36,17.001862715990853
37,14.035035113294384
38,18.551216433839656
39,0.0
2,1,10, 1, 0, 8,45.00,60.00,Sunday
7,14.3
8,62.5
9,290.5
10,19.21
11,0.0
12,0.0
13,1163.576984226864
14,1.0
15,207.5091211864419
16,369.66721389349266
17,42.97474214508171
18,42.97474214508171
19,126.49715794295142
20,1.0
21,207.5091211864419
22,1163.576984226864
23,1078.7205992886013
24,19.51598608186779
25,26.290856292906735
26,20.09144869899182
27,35.86853735902769
28,18.817465942250188
29,13.831536963969763
30,18.812291213486535
31,13.796719634433694
32,18.918474612558434
33,18.87031062709719
34,19.027637426668143
35,12.860585961252992
36,17.619976518761632
37,14.639508059145214
38,18.713677546442824
39,0.0
2,1,10, 1, 0, 9, 0.00,15.00,Sunday
7,14.500000000000002
8,69.75
9,343.75
10,19.21
11,0.0
12,0.0
13,1500.7348863317593
14,1.0
15,257.68516865489255
16,408.98501952862983
17,49.0760264541385
18,49.0760264541385
19,156.2317565107134
20,1.0
21,257.68516865489255
22,1500.7348863317593
23,1451.0086444156557
24,19.89857660708502
25,29.21847619339102
26,20.408481305407342
27,37.62989872420009
28,19.083097924454037
29,14.498461427404179
30,19.083858811033732
31,14.500973865669307
32,18.9865846792627
33,18.918474612558434
34,19.326946479876888
35,15.392534350967754
36,18.37763117024258
37,15.419431333018508
38,18.904447657964383
39,0.0
2,1,10, 1, 0, 9,15.00,30.00,Sunday
7,14.7
8,77.0
9,397.0
10,19.21
11,0.0
12,0.0
13,1873.7915854248467
14,1.0
15,312.6383808008586
16,443.6934325942692
17,55.429807019618096
18,55.429807019618096
19,188.7799372972862
20,1.0
21,312.6383808008586
22,1873.7915854248467
23,1856.4027999601503
24,20.302469799308145
25,32.1693590650975
26,20.73339947653806
27,39.09711109815223
28,19.377371424099856
29,15.144794811228438
30,19.378427452115947
31,15.162001923682562
32,19.075113917816225
33,18.9865846792627
34,19.64351372303148
35,17.752806614492375
36,19.18163617667153
37,16.195360450839416
38,19.125796523046247
39,0.0
2,1,10, 1, 0, 9,30.00,45.00,Sunday
7,14.899999999999999
8,86.0
9,419.5
10,19.21
11,0.0
12,0.0
13,2177.053504616747
14,1.0
15,354.80890051991236
16,450.4861465518243
17,61.86550509723822
18,61.86550509723822
19,216.08965389951416
20,1.0
21,354.80890051991236
22,2177.053504616747
23,2180.177484418839
24,20.611791289927844
25,33.99819602094468
26,20.934638087086984
27,38.828718453205994
28,19.638611441614426
29,15.75639233696542
30,19.63963461410605
31,15.773567211253722
32,19.172625966225468
33,19.075113917816225
34,19.911933498125624
35,19.4761239735854
36,19.809097690760836
37,16.77893795552029
38,19.36955029276509
39,0.0
2,1,10, 1, 0, 9,45.00,60.00,Sunday
7,15.1
8,95.0
9,442.0
10,19.21
11,0.0
12,0.0
13,2486.8959985604374
14,1.0
15,397.9979486927809
16,453.3803871619322
17,68.26143605239707
18,68.26143605239707
19,243.9963126318367
20,1.0
21,397.9979486927809
22,2486.8959985604374
23,2511.6187419409794
24,20.949956262194164
25,35.85068052616163
26,21.16755478717585
27,38.586970798652104
28,19.921443535297758
29,16.34622117303461
30,19.921336474688992
31,16.345911230214494
32,19.284688813669277
33,19.172625966225468
34,20.199121934370226
35,21.078423651910267
36,20.405508503393094
37,17.334207881312125
38,19.62143171211156
39,0.0
2,1,10, 1, 0,10, 0.00,15.00,Sunday
7,15.299999999999999
8,104.0
9,464.5
10,19.21
11,0.0
12,0.0
13,2809.0265175278305
14,1.0
15,441.92600868064596
16,452.2030021119693
17,74.60761766490717
18,74.60761766490717
19,272.3412267601484
20,1.0
21,441.92600868064596
22,2809.0265175278305
23,2853.7195058410944
24,21.257539188346446
25,37.2422732169073
26,21.37183306453507
27,37.89520491939016
28,20.196218806861378
29,16.858381862852784
30,20.19422357430833
31,16.827033982398063
32,19.410377896419934
33,19.284688813669277
34,20.475973983103174
35,22.36530943984162
36,20.97833890992007
37,17.832187068751296
38,19.8720930789974
39,0.0
2,1,10, 1, 0,10,15.00,30.00,Sunday
7,15.5
8,113.0
9,487.0
10,19.21
11,0.0
12,0.0
13,3125.4943511450965
14,1.0
15,486.29938113568073
16,446.805746606955
17,80.89400172008732
18,80.89400172008732
19,300.95879313725044
20,1.0
21,486.29938113568073
22,3125.4943511450965
23,3189.2218715638164
24,21.56550306444329
25,38.55434390281823
26,21.57422986417364
27,37.08277654410732
28,20.473177687737003
29,17.3454317120059
30,20.468577637261582
31,17.270540753095
32,19.548911289830084
33,19.410377896419934
34,20.75452475129621
35,23.54089381119824
36,21.52476530441254
37,18.297015248040793
38,20.118623291868328
39,0.0
2,1,10, 1, 0,10,30.00,45.00,Sunday
7,15.700000000000001
8,130.5
9,464.5
10,19.21
11,0.0
12,0.0
13,3265.186215090798
14,1.0
15,504.8300794033533
16,417.15466971244166
17,89.29341300732216
18,89.29341300732216
19,319.8350627247727
20,1.0
21,504.8300794033533
22,3265.186215090798
23,3332.753869552621
24,21.738708976258028
25,38.42630533828941
26,21.658544933855133
27,35.04330111983201
28,20.705046259364007
29,17.929996251933385
30,20.69698123775223
31,17.797045769277666
32,19.683548587880853
33,19.548911289830084
34,20.967357095014805
35,24.11016725231927
36,21.817271839779607
37,18.513684151272855
38,20.348360486633478
39,0.0
2,1,10, 1, 0,10,45.00,60.00,Sunday
7,15.9
8,148.0
9,442.0
10,19.21
11,0.0
12,0.0
13,3377.471117759664
14,1.0
15,520.1083461153506
16,386.7215733654981
17,97.25640457333415
18,97.25640457333415
19,336.8645918793547
20,1.0
21,520.1083461153506
22,3377.471117759664
23,3448.3531721721592
24,21.914393820587264
25,38.27527796707843
26,21.754086850178343
27,33.18615973595449
28,20.930754214503416
29,18.462052855089425
30,20.918857171794823
31,18.264186050575706
32,19.821334079141774
33,19.683548587880853
34,21.175895960107766
35,24.58415079422293
36,22.06283163958659
37,18.704458514998237
38,20.55531834936446
39,0.0
2,1,10, 1, 0,11, 0.00,15.00,Sunday
7,16.05
8,165.5
9,419.5
10,19.21
11,0.0
12,0.0
13,3471.091513164954
14,1.0
15,532.2341838879142
16,355.8846664661058
17,104.80950933211385
18,104.80950933211385
19,352.14520571436753
20,1.0
21,532.2341838879142
22,3471.091513164954
23,3550.4779119109976
24,22.336475831979275
25,41.68161701557022
26,21.956097561602196
27,32.505761682111086
28,21.19751775240644
29,18.952265199514923
30,21.198707718506427
31,18.956349148580646
32,19.969451679380274
33,19.821334079141774
34,21.458539110718633
35,26.075037860761498
36,22.38797255291297
37,19.08468112531898
38,20.760179196232773
39,0.0
2,1,10, 1, 0,11,15.00,30.00,Sunday
7,16.2
8,183.0
9,397.0
10,19.21
11,0.0
12,0.0
13,3394.6015993908277
14,1.0
15,518.6974130234873
16,312.63791021006625
17,110.00043467081127
18,110.00043467081127
19,365.7858134734484
20,1.0
21,518.6974130234873
22,3394.6015993908277
23,3464.082087736308
24,22.470503227297183
25,41.80874167170898
26,22.00474206149247
27,30.957762780187974
28,21.369286107596817
29,19.594163020613586
30,21.369192030850652
31,19.593908893918563
32,20.10860905096508
33,19.969451679380274
34,21.627066221503696
35,27.609032051850843
36,22.44950190651707
37,19.141746232906712
38,20.956979035718877
39,0.0
2,1,10, 1, 0,11,30.00,45.00,Sunday
7,16.35
8,166.75
9,400.5
10,19.21
11,0.0
12,0.0
13,3542.074810181727
14,1.0
15,540.0602568429118
16,283.2608417849536
17,105.37951782716206
18,105.37951782716206
19,356.47207781548815
20,1.0
21,540.0602568429118
22,3542.074810181727
23,3623.208944393951
24,22.821212324218767
25,44.39307770445166
26,22.174687780554894
27,30.181259915915675
28,21.584395062357416
29,19.694022511462418
30,21.584403118387268
31,19.694045201667333
32,20.26205565600262
33,20.10860905096508
34,21.850969655633232
35,27.95550778261129
36,22.803229049968877
37,19.513510843096753
38,21.150262224646806
39,0.0
2,1,10, 1, 0,11,45.00,60.00,Sunday
7,16.5
8,150.5
9,404.0
10,19.21
11,0.0
12,0.0
13,3530.7007484433534
14,1.0
15,535.9069174763
16,241.08842217013574
17,98.46516877806093
18,98.46516877806093
19,346.3399071560409
20,1.0
21,535.9069174763
22,3530.7007484433534
23,3608.43989994941
24,22.989280109107597
25,45.28577711354523
26,22.190220658452766
27,28.413057222296977
28,21.69412895128401
29,19.626616824968846
30,21.694128335509934
31,19.626614555058534
32,20.408395480475015
33,20.26205565600262
34,21.972129656366285
35,28.35826606667119
36,22.944820163680333
37,19.6621673545892
38,21.32894027359018
39,0.0
2,1,10, 1, 0,12, 0.00,15.00,Sunday
7,16.6
8,134.25
9,407.5
10,19.21
11,0.0
12,0.0
13,3507.0068425818235
14,1.0
15,529.0056637959443
16,198.82530866697215
17,91.26711635676138
18,91.26711635676138
19,335.34634830670643
20,1.0
21,529.0056637959443
22,3507.0068425818235
23,3576.1692361221626
24,22.94831643149172
25,43.49287820419687
26,22.06393927680532
27,25.359468658514256
28,21.698418105689335
29,18.98991398358016
30,21.6984181434372
31,18.989914141108404
32,20.543390220833597
33,20.408395480475015
34,21.969293885151572
35,26.73775062172372
36,22.94324747739057
37,19.60040893082362
38,21.46390713277268
39,0.0
2,1,10, 1, 0,12,15.00,30.00,Sunday
7,16.7
8,118.0
9,411.0
10,19.21
11,0.0
12,0.0
13,3457.8094119173393
14,1.0
15,519.4807768593163
16,156.77167701083997
17,83.80385298634506
18,83.80385298634506
19,323.4518402982335
20,1.0
21,519.4807768593163
22,3457.8094119173393
23,3519.3796814898524
24,22.929775237001564
25,42.07427368758269
26,21.949170202646588
27,22.671984879125926
28,21.70276518212957
29,18.474084397940285
30,21.70276518005796
31,18.47408438917762
32,20.672475947900853
33,20.543390220833597
34,21.971087406614572
35,25.499375555607312
36,22.88178832725822
37,19.512089292754865
38,21.550030598771052
39,0.0
2,1,10, 1, 0,12,30.00,45.00,Sunday
7,16.799999999999997
8,142.25
9,365.25
10,19.21
11,0.0
12,0.0
13,3351.1905362415155
14,1.0
15,506.5305911065139
16,130.72311924734345
17,93.13601827413294
18,93.13601827413294
19,326.3029146010082
20,1.0
21,506.5305911065139
22,3351.1905362415155
23,3405.3729808753947
24,22.930765188067536
25,40.54825888563464
26,21.961384220040514
27,21.11021739753407
28,21.83873822221014
29,18.96510409996328
30,21.83873822237471
31,18.965104100412084
32,20.794118192237814
33,20.672475947900853
34,22.075610693168365
35,25.162885954797993
36,22.802723278041583
37,19.432419606744247
38,21.613537784177613
39,0.0
2,1,10, 1, 0,12,45.00,60.00,Sunday
7,16.9
8,166.5
9,319.5
10,19.21
11,0.0
12,0.0
13,3044.187996162414
14,1.0
15,461.2986285518302
16,105.76939151942284
17,100.40206682151434
18,100.40206682151434
19,328.0233882082399
20,1.0
21,461.2986285518302
22,3044.187996162414
23,3071.2435698268214
24,22.666800667672437
25,36.13936907485532
26,21.85221936241212
27,19.705357662400232
28,21.84124464702744
29,19.465556877942408
30,21.828496382640136
31,19.26573647827362
32,20.892501908500414
33,20.794118192237814
34,22.039236905778978