Program Version,EnergyPlus, Version 23.2.0-7636e6b3e9, YMD=2026.07.24 09:08
1,5,Environment Title[],Latitude[deg],Longitude[deg],Time Zone[],Elevation[m]
2,8,Day of Simulation[],Month[],Day of Month[],DST Indicator[1=yes 0=no],Hour[],StartMinute[],EndMinute[],DayType
3,5,Cumulative Day of Simulation[],Month[],Day of Month[],DST Indicator[1=yes 0=no],DayType  ! When Daily Report Variables Requested
4,2,Cumulative Days of Simulation[],Month[]  ! When Monthly Report Variables Requested
5,1,Cumulative Days of Simulation[] ! When Run Period Report Variables Requested
6,1,Calendar Year of Simulation[] ! When Annual Report Variables Requested
7,1,Environment,Site Outdoor Air Drybulb Temperature [C] !TimeStep
8,1,Environment,Site Sky Temperature [C] !TimeStep
9,1,Environment,Site Diffuse Solar Radiation Rate per Area [W/m2] !TimeStep
10,1,Environment,Site Direct Solar Radiation Rate per Area [W/m2] !TimeStep
11,1,Environment,Site Ground Temperature [C] !TimeStep
12,1,ZONE ONE,Zone Total Internal Radiant Heating Rate [W] !TimeStep
13,1,ZONE ONE,Zone Total Internal Convective Heating Rate [W] !TimeStep
14,1,ZONE ONE,Zone Windows Total Transmitted Solar Radiation Rate [W] !TimeStep
15,1,ZN001:WALL001,Surface Outside Face Sunlit Fraction [] !TimeStep
16,1,ZN001:WALL001,Surface Outside Face Incident Solar Radiation Rate per Area [W/m2] !TimeStep
17,1,ZN001:WALL002,Surface Outside Face Incident Solar Radiation Rate per Area [W/m2] !TimeStep
18,1,ZN001:WALL003,Surface Outside Face Incident Solar Radiation Rate per Area [W/m2] !TimeStep
19,1,ZN001:WALL004,Surface Outside Face Incident Solar Radiation Rate per Area [W/m2] !TimeStep
20,1,ZN001:ROOF001,Surface Outside Face Incident Solar Radiation Rate per Area [W/m2] !TimeStep
21,1,ZN001:WALL001:WIN001,Surface Outside Face Sunlit Fraction [] !TimeStep
22,1,ZN001:WALL001:WIN001,Surface Outside Face Incident Solar Radiation Rate per Area [W/m2] !TimeStep
23,1,ZN001:WALL001:WIN001,Surface Window Transmitted Solar Radiation Rate [W] !TimeStep
24,1,ZN001:WALL001:WIN001,Surface Window Net Heat Transfer Rate [W] !TimeStep
25,1,ZN001:WALL001,Surface Inside Face Temperature [C] !TimeStep
26,1,ZN001:WALL001,Surface Outside Face Temperature [C] !TimeStep
27,1,ZN001:WALL001,Surface Inside Face Convection Heat Transfer Coefficient [W/m2-K] !TimeStep
28,1,ZN001:WALL001,Surface Outside Face Outdoor Air Drybulb Temperature [C] !TimeStep
29,1,ZN001:WALL001,Surface Outside Face Convection Heat Transfer Coefficient [W/m2-K] !TimeStep
30,1,ZN001:WALL001,Surface Outside Face Net Thermal Radiation Heat Gain Rate [W] !TimeStep
31,1,ZN001:WALL001,Surface Outside Face Thermal Radiation to Sky Heat Transfer Coefficient [W/m2-K] !TimeStep
32,1,ZN001:WALL001,Surface Outside Face Thermal Radiation to Ground Heat Transfer Coefficient [W/m2-K] !TimeStep
33,1,ZN001:WALL001,Surface Outside Face Thermal Radiation to Air Heat Transfer Rate [W] !TimeStep
34,1,ZN001:WALL001,Surface Outside Face Solar Radiation Heat Gain Rate [W] !TimeStep
35,1,ZN001:WALL002,Surface Inside Face Temperature [C] !TimeStep
36,1,ZN001:WALL002,Surface Outside Face Temperature [C] !TimeStep
37,1,ZN001:WALL002,Surface Inside Face Convection Heat Transfer Coefficient [W/m2-K] !TimeStep
38,1,ZN001:WALL002,Surface Outside Face Outdoor Air Drybulb Temperature [C] !TimeStep
39,1,ZN001:WALL002,Surface Outside Face Convection Heat Transfer Coefficient [W/m2-K] !TimeStep
40,1,ZN001:WALL002,Surface Outside Face Net Thermal Radiation Heat Gain Rate [W] !TimeStep
41,1,ZN001:WALL002,Surface Outside Face Thermal Radiation to Sky Heat Transfer Coefficient [W/m2-K] !TimeStep
42,1,ZN001:WALL002,Surface Outside Face Thermal Radiation to Ground Heat Transfer Coefficient [W/m2-K] !TimeStep
43,1,ZN001:WALL002,Surface Outside Face Thermal Radiation to Air Heat Transfer Rate [W] !TimeStep
44,1,ZN001:WALL002,Surface Outside Face Solar Radiation Heat Gain Rate [W] !TimeStep
45,1,ZN001:WALL003,Surface Inside Face Temperature [C] !TimeStep
46,1,ZN001:WALL003,Surface Outside Face Temperature [C] !TimeStep
47,1,ZN001:WALL003,Surface Inside Face Convection Heat Transfer Coefficient [W/m2-K] !TimeStep
48,1,ZN001:WALL003,Surface Outside Face Outdoor Air Drybulb Temperature [C] !TimeStep
49,1,ZN001:WALL003,Surface Outside Face Convection Heat Transfer Coefficient [W/m2-K] !TimeStep
50,1,ZN001:WALL003,Surface Outside Face Net Thermal Radiation Heat Gain Rate [W] !TimeStep
51,1,ZN001:WALL003,Surface Outside Face Thermal Radiation to Sky Heat Transfer Coefficient [W/m2-K] !TimeStep
52,1,ZN001:WALL003,Surface Outside Face Thermal Radiation to Ground Heat Transfer Coefficient [W/m2-K] !TimeStep
53,1,ZN001:WALL003,Surface Outside Face Thermal Radiation to Air Heat Transfer Rate [W] !TimeStep
54,1,ZN001:WALL003,Surface Outside Face Solar Radiation Heat Gain Rate [W] !TimeStep
55,1,ZN001:WALL004,Surface Inside Face Temperature [C] !TimeStep
56,1,ZN001:WALL004,Surface Outside Face Temperature [C] !TimeStep
57,1,ZN001:WALL004,Surface Inside Face Convection Heat Transfer Coefficient [W/m2-K] !TimeStep
58,1,ZN001:WALL004,Surface Outside Face Outdoor Air Drybulb Temperature [C] !TimeStep
59,1,ZN001:WALL004,Surface Outside Face Convection Heat Transfer Coefficient [W/m2-K] !TimeStep
60,1,ZN001:WALL004,Surface Outside Face Net Thermal Radiation Heat Gain Rate [W] !TimeStep
61,1,ZN001:WALL004,Surface Outside Face Thermal Radiation to Sky Heat Transfer Coefficient [W/m2-K] !TimeStep
62,1,ZN001:WALL004,Surface Outside Face Thermal Radiation to Ground Heat Transfer Coefficient [W/m2-K] !TimeStep
63,1,ZN001:WALL004,Surface Outside Face Thermal Radiation to Air Heat Transfer Rate [W] !TimeStep
64,1,ZN001:WALL004,Surface Outside Face Solar Radiation Heat Gain Rate [W] !TimeStep
65,1,ZN001:FLR001,Surface Inside Face Temperature [C] !TimeStep
66,1,ZN001:FLR001,Surface Outside Face Temperature [C] !TimeStep
67,1,ZN001:FLR001,Surface Inside Face Convection Heat Transfer Coefficient [W/m2-K] !TimeStep
68,1,ZN001:ROOF001,Surface Inside Face Temperature [C] !TimeStep
69,1,ZN001:ROOF001,Surface Outside Face Temperature [C] !TimeStep
70,1,ZN001:ROOF001,Surface Inside Face Convection Heat Transfer Coefficient [W/m2-K] !TimeStep
71,1,ZN001:ROOF001,Surface Outside Face Outdoor Air Drybulb Temperature [C] !TimeStep
72,1,ZN001:ROOF001,Surface Outside Face Convection Heat Transfer Coefficient [W/m2-K] !TimeStep
73,1,ZN001:ROOF001,Surface Outside Face Net Thermal Radiation Heat Gain Rate [W] !TimeStep
74,1,ZN001:ROOF001,Surface Outside Face Thermal Radiation to Sky Heat Transfer Coefficient [W/m2-K] !TimeStep
75,1,ZN001:ROOF001,Surface Outside Face Thermal Radiation to Ground Heat Transfer Coefficient [W/m2-K] !TimeStep
76,1,ZN001:ROOF001,Surface Outside Face Thermal Radiation to Air Heat Transfer Rate [W] !TimeStep
77,1,ZN001:ROOF001,Surface Outside Face Solar Radiation Heat Gain Rate [W] !TimeStep
78,1,ZN001:WALL001:WIN001,Surface Inside Face Temperature [C] !TimeStep
79,1,ZN001:WALL001:WIN001,Surface Outside Face Temperature [C] !TimeStep
80,1,ZN001:WALL001:WIN001,Surface Inside Face Convection Heat Transfer Coefficient [W/m2-K] !TimeStep
81,1,ZN001:WALL001:WIN001,Surface Outside Face Outdoor Air Drybulb Temperature [C] !TimeStep
82,1,ZN001:WALL001:WIN001,Surface Outside Face Convection Heat Transfer Coefficient [W/m2-K] !TimeStep
83,1,ZN001:WALL001:WIN001,Surface Outside Face Net Thermal Radiation Heat Gain Rate [W] !TimeStep
84,1,ZN001:WALL001:WIN001,Surface Outside Face Thermal Radiation to Sky Heat Transfer Coefficient [W/m2-K] !TimeStep
85,1,ZN001:WALL001:WIN001,Surface Outside Face Thermal Radiation to Ground Heat Transfer Coefficient [W/m2-K] !TimeStep
86,1,ZN001:WALL001:WIN001,Surface Outside Face Thermal Radiation to Air Heat Transfer Rate [W] !TimeStep
87,1,ZONE ONE,Zone Mean Air Temperature [C] !TimeStep
88,1,ZONE ONE,Zone Air Heat Balance Internal Convective Heat Gain Rate [W] !TimeStep
89,1,ZONE ONE,Zone Air Heat Balance Surface Convection Rate [W] !TimeStep
90,1,ZONE ONE,Zone Air Heat Balance Interzone Air Transfer Rate [W] !TimeStep
91,1,ZONE ONE,Zone Air Heat Balance Outdoor Air Transfer Rate [W] !TimeStep
92,1,ZONE ONE,Zone Air Heat Balance System Air Transfer Rate [W] !TimeStep
93,1,ZONE ONE,Zone Air Heat Balance Air Energy Storage Rate [W] !TimeStep
End of Data Dictionary
1,RUN PERIOD 1,  55.95,  -3.37,   0.00,  41.10
2,1, 4, 1, 0, 1, 0.00,15.00,Tuesday
7,3.8249999999999997
8,-1.4987413327883132
9,0.0
10,0.0
11,19.12
12,0.0
13,0.0
14,0.0
15,0.0
16,0.0
17,0.0
18,0.0
19,0.0
20,0.0
21,0.0
22,0.0
23,0.0
24,-90.98860948516477
25,6.554358733116361
26,2.91443299319092
27,0.8684180928239063
28,3.819891003043213
29,2.6931407843412494
30,-236.01708510242503
31,1.4841396079028573
32,2.160451955603022
33,-33.72620954660236
34,0.0
35,6.547672960337172
36,2.9168447628788012
37,0.8802405771808969
38,3.819891003043213
39,2.7038294348359306
40,-279.98086686064727
41,1.4835411122729518
42,2.1595946086121405
43,-39.79996855316426
44,0.0
45,6.540346419157505
46,2.814905818442493
47,0.8797663937715026
48,3.819891003043213
49,1.967190116543017
50,-249.61672971663532
51,1.4835715593568406
52,2.1596382242205445
53,-44.29361950673628
54,0.0
55,6.539709491518782
56,2.8101974189779084
57,0.8747908669026085
58,3.819891003043213
59,1.9468609265888293
60,-248.31273492168214
61,1.4841543774087296
62,2.160473112938696
63,-44.51834062244055
64,0.0
65,7.215367671409673
66,7.24144409082112
67,1.0549905219785043
68,6.667225865889294
69,0.4665723506478229
70,0.8474402031469067
71,3.805032019075771
72,2.110102563613177
73,-1895.956767986207
74,4.153618626188372
75,0.0
76,0.0
77,0.0
78,5.374411195033417
79,4.005375120945018
80,1.3759832329399448
81,3.8249999999999997
82,1.8903863876329519
83,-79.6455758425493
84,1.393368864776678
85,2.028183886591102
86,-1.0481370250718565
87,6.871467777434995
88,0.0
89,-58.52578392988622
90,0.0
91,0.0
92,0.0
93,-53.06900909890267
2,1, 4, 1, 0, 1,15.00,30.00,Tuesday
7,3.8499999999999996
8,-2.884055518863761
9,0.0
10,0.0
11,19.12
12,0.0
13,0.0
14,0.0
15,0.0
16,0.0
17,0.0
18,0.0
19,0.0
20,0.0
21,0.0
22,0.0
23,0.0
24,-96.2004069233591
25,6.497515485033312
26,2.703822586804473
27,0.8933416486922214
28,3.844891003043213
29,2.965930372526029
30,-295.8238893254801
31,1.4711012571718498
32,2.1580374770931234
33,-42.45465083187706
34,0.0
35,6.489865366816778
36,2.7032738446001026
37,0.8995762959563964
38,3.844891003043213
39,2.9656400538909997
40,-350.01196659386994
41,1.4711208761434265
42,2.1580656777149243
43,-50.27888647677704
44,0.0
45,6.481701525229142
46,2.5829228294963675
47,0.9063106926809474
48,3.844891003043213
49,2.23654094042756
50,-314.09820502763705
51,1.4702918366218498
52,2.1568740001958386
53,-55.54867230834324
54,0.0
55,6.4817646374327325
56,2.583289281317001
57,0.9068914310161822
58,3.844891003043213
59,2.2375706972122686
60,-314.1986390886439
61,1.470253554539789
62,2.1568189726425486
63,-55.53112523690622
64,0.0
65,7.188206467235574
66,7.215367671409673
67,1.0649566452834576
68,6.605866149944584
69,-0.21650062088261712
70,0.895164538265891
71,3.830032019075771
72,2.4005566505052585
73,-2543.241909097879
74,4.104916918226421
75,0.0
76,0.0
77,0.0
78,5.244031829957635
79,3.79421336186698
80,1.396404415422866
81,3.8499999999999996
82,1.9263942184849094
83,-88.80490956736224
84,1.381332659155974
85,2.0261615002248416
86,0.32384246371029335
87,6.829441273134797
88,0.0
89,-68.22426409391633
90,0.0
91,0.0
92,0.0
93,-62.58497800929275
2,1, 4, 1, 0, 1,30.00,45.00,Tuesday
7,3.875
8,-4.291005668255764
9,0.0
10,0.0
11,19.12
12,0.0
13,0.0
14,0.0
15,0.0
16,0.0
17,0.0
18,0.0
19,0.0
20,0.0
21,0.0
22,0.0
23,0.0
24,-101.9236927716991
25,6.4285408346723205
26,2.35821648436628
27,0.9070440328196427
28,3.869891003043213
29,2.4645369938886006
30,-322.04405055437945
31,1.4581492929613649
32,2.155868938769857
33,-56.18692363422043
34,0.0
35,6.431015141637715
36,2.5046641055743346
37,0.9139595918258041
38,3.869891003043213
39,3.218116955257792
40,-424.5269158849251
41,1.4581448489249405
42,2.1558625285475332
43,-60.06568105313343
44,0.0
45,6.431803459343274
46,2.5091073120673193
47,0.9212259233284076
48,3.869891003043213
49,3.2304519189035483
50,-425.55238321639337
51,1.4571704635519027
52,2.1544570383825024
53,-59.83116227489761
54,0.0
55,6.4215386123646185
56,2.3649574502269983
57,0.9211701880492762
58,3.869891003043213
59,2.4863504982270728
60,-382.9400929490478
61,1.4571734295480359
62,2.1544613166624758
63,-66.1692986270706
64,0.0
65,7.159706241890432
66,7.188206467235574
67,1.080085199363317
68,6.54335911000335
69,-0.8505893127949214
70,0.922562377972482
71,3.855032019075771
72,2.6817333411139064
73,-3242.4780442366105
74,4.05785109594806
75,0.0
76,0.0
77,0.0
78,5.103933539222567
79,3.564990240984116
80,1.4103179387853038
81,3.875
82,1.4830221208717769
83,-97.26919540306922
84,1.369203239185837
85,2.0241200771074412
86,1.7976232559156664
87,6.782388057804741
88,0.0
89,-73.13802301083285
90,0.0
91,0.0
92,0.0
93,-70.08138461243334
2,1, 4, 1, 0, 1,45.00,60.00,Tuesday
7,3.9
8,-5.720397049500946
9,0.0
10,0.0
11,19.12
12,0.0
13,0.0
14,0.0
15,0.0
16,0.0
17,0.0
18,0.0
19,0.0
20,0.0
21,0.0
22,0.0
23,0.0
24,-106.80705148717014
25,6.369378353326
26,2.1619161559844584
27,0.9265879246085843
28,3.894891003043213
29,2.727919243312138
30,-385.51350741131336
31,1.4440227132698453
32,2.1521276823741657
33,-64.30058132396691
34,0.0
35,6.371406216385445
36,2.3165932012528865
37,0.924423122453598
38,3.894891003043213
39,3.4553787719951954
40,-502.30518524037177
41,1.4452030494034673
42,2.1538362923674965
43,-69.37486448548694
44,0.0
45,6.371341115098693
46,2.3163300082470153
47,0.923731279356911
48,3.894891003043213
49,3.4549907571955396
50,-502.24028320737574
51,1.4452388739215407
52,2.1538881503094682
53,-69.38810388287641
54,0.0
55,6.360894354457331
56,2.160966061900877
57,0.9326600755374332
58,3.894891003043213
59,2.7269091460344677
60,-456.0745294265222
61,1.4440770254068116
62,2.1522063029605785
63,-76.15785404586032
64,0.0
65,7.129856921122102
66,7.159706241890432
67,1.0983914891143298
68,6.480577059737383
69,-1.439573419953513
70,0.943346872164519
71,3.880032019075771
72,2.9579281916528624
73,-3988.710446041877
74,4.011762747995111
75,0.0
76,0.0
77,0.0
78,4.976666475298998
79,3.360068112210797
80,1.4270466045577679
81,3.9
82,1.7732534648562734
83,-106.71415670592057
84,1.3568560444630495
85,2.0218829976735964
86,3.1278013502262403
87,6.7324404922442955
88,0.0
89,-75.48790830400048
90,0.0
91,0.0
92,0.0
93,-74.4044187435459
2,1, 4, 1, 0, 2, 0.00,15.00,Tuesday
7,3.8249999999999997
8,-6.240634339670748
9,0.0
10,0.0
11,19.12
12,0.0
13,0.0
14,0.0
15,0.0
16,0.0
17,0.0
18,0.0
19,0.0
20,0.0
21,0.0
22,0.0
23,0.0
24,-109.1244140189205
25,6.319197795787209
26,2.0235384098963
27,0.9345625190511405
28,3.819891003043213
29,2.795923485194382
30,-405.26057193353535
31,1.4383399994585802
32,2.1489619389575654
33,-66.55411535067428
34,0.0
35,6.321271268068892
36,2.1815856062422916
37,0.9328192873921515
38,3.819891003043213
39,3.5177388516831716
40,-526.6106872998537
41,1.4395839143841804
42,2.1507645610924357
43,-71.90982622959129
44,0.0
45,6.321276392864963
46,2.1816048679262123
47,0.9328753523239539
48,3.819891003043213
49,3.5177611893174583
50,-526.6155627348344
51,1.439581796980918
52,2.150761492670233
53,-71.90887819009143
54,0.0
55,6.310618428821911
56,2.0231244773929986
57,0.9417861280891583
58,3.819891003043213
59,2.796058917672435
60,-479.5874157243103
61,1.438332361704499
62,2.1489508706250184
63,-78.79862517018765
64,0.0
65,7.099577637014743
66,7.129856921122102
67,1.1175574363412206
68,6.432375113501409
69,-1.6881528438377273
70,0.9599374898999045
71,3.805032019075771
72,3.0344410534236275
73,-4215.723759761946
74,3.9870714847019055
75,0.0
76,0.0
77,0.0
78,4.890362989877303
79,3.2366382008202663
80,1.4378936614782871
81,3.8249999999999997
82,1.8607190126441706
83,-110.31574359080493
84,1.3514668851586926
85,2.018819113912084
86,3.404690301427186
87,6.683077164161659
88,0.0
89,-71.37183784673866
90,0.0
91,0.0
92,0.0
93,-73.5472630728318
2,1, 4, 1, 0, 2,15.00,30.00,Tuesday
7,3.75
8,-6.763931550078951
9,0.0
10,0.0
11,19.12
12,0.0
13,0.0
14,0.0
15,0.0
16,0.0
17,0.0
18,0.0
19,0.0
20,0.0
21,0.0
22,0.0
23,0.0
24,-111.62619818130209
25,6.2674850937131
26,1.883359498142051
27,0.93526320689558
28,3.744891003043213
29,2.855030282195541
30,-424.7309936652994
31,1.433113949996219
32,2.1464736273028957
33,-68.88910679707139
34,0.0
35,6.269655426783519
36,2.045681275717699
37,0.9334833702859822
38,3.744891003043213
39,3.5747817768324843
40,-550.8514888444131
41,1.4343824987034872
42,2.148313975673402
43,-74.49810827085079
44,0.0
45,6.26965502464494
46,2.0456797964852464
47,0.9334789628264876
48,3.744891003043213
49,3.574780197830104
50,-550.8511152364418
51,1.434382653365302
52,2.1483142000478104
53,-74.49818090528504
54,0.0
55,6.258702139297177
56,1.8828893040825334
57,0.9425565743445379
58,3.744891003043213
59,2.855086962901087
60,-502.6199372851017
61,1.4331106289040885
62,2.14646880919537
63,-81.56524790635673
64,0.0
65,7.068384108695016
66,7.099577637014743
67,1.1351669722971665
68,6.3821864764707135
69,-1.9454679837956996
70,0.9584597420111016
71,3.730032019075771
72,3.1027324358261765
73,-4442.91754716834
74,3.969992991225323
75,0.0
76,0.0
77,0.0
78,4.805167475414521
79,3.1115708793814747
80,1.4447301357872167
81,3.75
82,1.9107189240360416
83,-113.85787482285083
84,1.3466842742660308
85,2.0166489050875196
86,3.6904113790170148
87,6.635852001626677
88,0.0
89,-67.99715651601917
90,0.0
91,0.0
92,0.0
93,-70.37362469319676
2,1, 4, 1, 0, 2,30.00,45.00,Tuesday
7,3.6750000000000003
8,-7.290331007743134
9,0.0
10,0.0
11,19.12
12,0.0
13,0.0
14,0.0
15,0.0
16,0.0
17,0.0
18,0.0
19,0.0
20,0.0
21,0.0
22,0.0
23,0.0
24,-114.11278546565185
25,6.216476594707995
26,1.7442843200995917
27,0.9390922181437272
28,3.6698910030432135
29,2.9141355375982663
30,-444.5137463338545
31,1.4278633910466725
32,2.1439663475632997
33,-71.17707797509993
34,0.0
35,6.206211738275731
36,1.7347996671331636
37,0.937244279070653
38,3.6698910030432135
39,2.892575376870795
40,-523.8883921937712
41,1.4291636977398252
42,2.145854867022253
43,-84.7427043906142
44,0.0
45,6.218713083121345
46,1.9105643351346948
47,0.9372446221486344
48,3.6698910030432135
49,3.6312592611769485
50,-575.3681328786737
51,1.429163685885448
52,2.145854849805514
53,-77.0455098331536
54,0.0
55,6.219762411796121
56,1.9164994633757455
57,0.9464972505168817
58,3.6698910030432135
59,3.6442628929606915
60,-576.5697461230669
61,1.4278596259825251
62,2.1439608792812264
63,-76.71782270302639
64,0.0
65,7.036427067335111
66,7.068384108695016
67,1.1495486723357036
68,6.332655362152629
69,-2.199450285901285
70,0.9622215144527723
71,3.6550320190757715
72,3.171074388988285
73,-4673.65956433377
74,3.9527033232463227
75,0.0
76,0.0
77,0.0
78,4.720007182266897
79,2.9867983293094085
80,1.451860788610007
81,3.6750000000000003
82,1.9600916817440053
83,-117.41670609311527
84,1.3418794573402293
85,2.0144624039109558
86,3.973811772541091
87,6.5903685803785
88,0.0
89,-66.67746183306097
90,0.0
91,0.0
92,0.0
93,-67.78931849888757
2,1, 4, 1, 0, 2,45.00,60.00,Tuesday
7,3.6
8,-7.819875967085466
9,0.0
10,0.0
11,19.12
12,0.0
13,0.0
14,0.0
15,0.0
16,0.0
17,0.0
18,0.0
19,0.0
20,0.0
21,0.0
22,0.0
23,0.0
24,-116.60422981202412
25,6.16589614841924
26,1.6059927055584258
27,0.943764037323431
28,3.5948910030432133
29,2.972861698280415
30,-464.53525275376217
31,1.4226114790471236
32,2.1414739073941194
33,-73.43108907308911
34,0.0
35,6.156845549782225
36,1.6061483724743328
37,0.952322904535705
38,3.5948910030432133
39,2.9740621412645254
40,-549.8912248732881
41,1.4225356825307467
42,2.1413636989718303
43,-86.90995499253931
44,0.0
45,6.168186200064136
46,1.7760203628137305
47,0.941878519601545
48,3.5948910030432133
49,3.6870620282154145
50,-600.101916968711
51,1.4239408790567119
52,2.1434068456896926
53,-79.56222716849449
54,0.0
55,6.168100586181608
56,1.7756744297578966
57,0.9409912536930087
58,3.5948910030432133
59,3.6866072053947283
60,-600.0212013214099
61,1.4239883502020796
62,2.1434758679001855
63,-79.5799217565076
64,0.0
65,7.0037812150438885
66,7.036427067335111
67,1.1614089885467613
68,6.283515548647312
69,-2.4507343697564985
70,0.9673125268422385
71,3.5800320190757713
72,3.2392131430787705
73,-4907.6267341716575
74,3.935471141349884
75,0.0
76,0.0
77,0.0
78,4.635489309547779
79,2.8626150557189476
80,1.4590884514527467
81,3.6
82,2.0082471667365995
83,-121.00373814099461
84,1.3370668676464337
85,2.0122807331608263
86,4.253207170015424
87,6.545730219381756
88,0.0
89,-66.34571984744792
90,0.0
91,0.0
92,0.0
93,-66.54060824485292
2,1, 4, 1, 0, 3, 0.00,15.00,Tuesday
7,3.6
8,-7.997097567027481
9,0.0
10,0.0
11,19.12
12,0.0
13,0.0
14,0.0
15,0.0
16,0.0
17,0.0
18,0.0
19,0.0
20,0.0
21,0.0
22,0.0
23,0.0
24,-115.95612872755535
25,6.1392001056184995
26,1.6323560936264891
27,0.9487373791304972
28,3.5948910030432133
29,3.1928376801438976
30,-484.7107110287781
31,1.4201244984427772
32,2.1398675066515542
33,-72.40338671144012
34,0.0
35,6.129948932693144
36,1.6318124118774604
37,0.9562137400184735
38,3.5948910030432133
39,3.1928205282374282
40,-573.599595694134
41,1.4201257410989852
42,2.1398693142803418
43,-85.72854311873745
44,0.0
45,6.140812115013438
46,1.793626166523407
47,0.9468268618591447
48,3.5948910030432133
49,3.8975456024953434
50,-621.4086576887498
51,1.4214823611803713
52,2.14184270611444
53,-78.7346044954464
54,0.0
55,6.140818499675603
56,1.7936496456177327
57,0.9468984256089209
58,3.5948910030432133
59,3.8975686460352517
60,-621.4142817661233
61,1.4214795973604741
62,2.1418386857847818
63,-78.73343042077946
64,0.0
65,6.972056152903516
66,7.0037812150438885
67,1.1717254359229197
68,6.256813731524174
69,-2.3259501066112787
70,0.9729120358609589
71,3.5800320190757713
72,3.503348919624079
73,-5171.243275911083
74,3.92603435219682
75,0.0
76,0.0
77,0.0
78,4.600299493171633
79,2.835572676444599
80,1.4554957809299922
81,3.6
82,2.1706669780042853
83,-122.12434376716419
84,1.334841123253336
85,2.0109262143910156
86,4.408540039979501
87,6.504851523951216
88,0.0
89,-56.68594731481117
90,0.0
91,0.0
92,0.0
93,-60.945284618522244
2,1, 4, 1, 0, 3,15.00,30.00,Tuesday
7,3.6
8,-8.174675232709944
9,0.0
10,0.0
11,19.12
12,0.0
13,0.0
14,0.0
15,0.0
16,0.0
17,0.0
18,0.0
19,0.0
20,0.0
21,0.0
22,0.0
23,0.0
24,-115.61314973233172
25,6.110214572237907
26,1.6507963234721879
27,0.9367789565150169
28,3.5948910030432133
29,3.3976498233906374
30,-503.3755293967371
31,1.4189511389835556
32,2.140173661883783
33,-71.73333676638214
34,0.0
35,6.10096287088042
36,1.6503110744629037
37,0.9446135831862175
38,3.5948910030432133
39,3.397702378087369
40,-595.7080545433164
41,1.4189468002112635
42,2.1401673477708845
43,-84.93252548972929
44,0.0
45,6.111363952716831
46,1.8048976549998377
47,0.935400301882622
48,3.5948910030432133
49,4.092959847619368
50,-641.3901575981704
51,1.4202386440156007
52,2.1420473243375744
53,-78.24939422605244
54,0.0
55,6.111363485863097
56,1.8048960274293349
57,0.935394833381425
58,3.5948910030432133
59,4.092958523939034
60,-641.3897687601535
61,1.4202388315361856
62,2.142047597227989
63,-78.24947534389449
64,0.0
65,6.940301938085595
66,6.972056152903516
67,1.1794792172473099
68,6.228120180812537
69,-2.2186675374803206
70,0.9550523987153442
71,3.5800320190757713
72,3.764319602929586
73,-5429.453660926958
74,3.9249212431140945
75,0.0
76,0.0
77,0.0
78,4.572136089589833
79,2.8116769530067813
80,1.453004829204179
81,3.6
82,2.302303030089588
83,-123.36862964851133
84,1.3333429457938115
85,2.010631359475376
86,4.545760355922498
87,6.468991106364696
88,0.0
89,-49.09744058335026
90,0.0
91,0.0
92,0.0
93,-53.47061694790968
2,1, 4, 1, 0, 3,30.00,45.00,Tuesday
7,3.6
8,-8.352610637864302
9,0.0
10,0.0
11,19.12
12,0.0
13,0.0
14,0.0
15,0.0
16,0.0
17,0.0
18,0.0
19,0.0
20,0.0
21,0.0
22,0.0
23,0.0
24,-115.2813436073444
25,6.083525648173295
26,1.6700525112168778
27,0.9308707462052661
28,3.5948910030432133
29,3.6076836449513534
30,-522.22019534862
31,1.4177128480997616
32,2.1403878295289562
33,-71.0299279198136
34,0.0
35,6.074254537315459
36,1.6695735154606621
37,0.9388043329268079
38,3.5948910030432133
39,3.6077243564503862
40,-618.016698099392
41,1.4177089769704387
42,2.140382193528072
43,-84.09965038538775
44,0.0
45,6.084083025510379
46,1.8155131384977454
47,0.929875633518237
48,3.5948910030432133
49,4.285460883181913
50,-661.1580600749542
51,1.418942677221945
52,2.1421783330116937
53,-77.79009673320834
54,0.0
55,6.08408305893887
56,1.8155132506872134
57,0.9298760381442259
58,3.5948910030432133
59,4.285460959728782
60,-661.1580866501914
61,1.4189426642279455
62,2.1421783140938673
63,-77.7900911415828
64,0.0
65,6.90876469789165
66,6.940301938085595
67,1.1829245748069557
68,6.201483927366559
69,-2.115496596349509
70,0.9457638451572906
71,3.5800320190757713
72,4.028634634522141
73,-5683.52709829857
74,3.923415613684694
75,0.0
76,0.0
77,0.0
78,4.544761843035303
79,2.788665914998205
80,1.4513987701581594
81,3.6
82,2.4335976533189823
83,-124.64783583458673
84,1.3318670646398019
85,2.0103708459475698
86,4.6778667116384085
87,6.437116566580429
88,0.0
89,-45.0689861904232
90,0.0
91,0.0
92,0.0
93,-47.53290549505026
2,1, 4, 1, 0, 3,45.00,60.00,Tuesday
7,3.6
8,-8.530905468618926
9,0.0
10,0.0
11,19.12
12,0.0
13,0.0
14,0.0
15,0.0
16,0.0
17,0.0
18,0.0
19,0.0
20,0.0
21,0.0
22,0.0
23,0.0
24,-114.98510614982274
25,6.058346782122495
26,1.6891524789420826
27,0.926364149853357
28,3.5948910030432133
29,3.8212434914322464
30,-541.0297547272382
31,1.416479376400876
32,2.1406114942270964
33,-70.33245427821342
34,0.0
35,6.04906196912514
36,1.6886835490794865
37,0.9343907859589164
38,3.5948910030432133
39,3.821277933184006
40,-640.2847186658732
41,1.4164755564575708
42,2.14060593033727
43,-83.27361020825451
44,0.0
45,6.0582543926945
46,1.825083647661338
47,0.925877140808829
48,3.5948910030432133
49,4.47478587193611
50,-680.6190246679378
51,1.417639827523523
52,2.142301723460587
53,-77.37615386432347
54,0.0
55,6.058254390340499
56,1.8250836400283619
57,0.9258771115852821
58,3.5948910030432133
59,4.47478586762616
60,-680.6190228785648
61,1.4176398284188645
62,2.142301724764674
63,-77.37615424513928
64,0.0
65,6.877527364788343
66,6.90876469789165
67,1.183206699187376
68,6.176214462142915
69,-2.0172327531707124
70,0.938857607680807
71,3.5800320190757713
72,4.295326651905039
73,-5933.115900851121
74,3.921813750160025
75,0.0
76,0.0
77,0.0
78,4.519148551796889
79,2.767012693617346
80,1.4501964182240499
81,3.6
82,2.565043170058176
83,-125.98047721371671
84,1.3303965058717309
85,2.010120005739647
86,4.802147664508523
87,6.407702919500881
88,0.0
89,-42.78634710265459
90,0.0
91,0.0
92,0.0
93,-43.867823241012765
2,1, 4, 1, 0, 4, 0.00,15.00,Tuesday
7,3.625
8,-8.233947202588524
9,0.0
10,0.0
11,19.12
12,0.0
13,0.0
14,0.0
15,0.0
16,0.0
17,0.0
18,0.0
19,0.0
20,0.0
21,0.0
22,0.0
23,0.0
24,-112.55151896786312
25,6.042107440329634
26,1.7674941209024342
27,0.9226510874510547
28,3.619891003043213
29,3.875860187745764
30,-532.8692942981021
31,1.4189427692508836
32,2.1411251442181403
33,-68.3802523532209
34,0.0
35,6.032970795871818
36,1.7670208608739573
37,0.9307534709308621
38,3.619891003043213
39,3.8758925906389425
40,-630.62378740847
41,1.4189390265187765
42,2.1411196964177095
43,-80.96297073973145
44,0.0
45,6.0417965511191305
46,1.8975188929109006
47,0.9227324139102423
48,3.619891003043213
49,4.522292214934186
50,-669.219010037587
51,1.4200280591732677
52,2.142704847844683
53,-75.31645010967897
54,0.0
55,6.041796551280583
56,1.8975188934360265
57,0.9227324159821856
58,3.619891003043213
59,4.52229221521457
60,-669.2190101616746
61,1.420028059112306
62,2.1427048477559376
63,-75.31645008359668
64,0.0
65,6.847100495859701
66,6.877527364788343
67,1.1816797242404682
68,6.158428850954815
69,-1.829371414299903
70,0.9333209780791497
71,3.605032019075771
72,4.362120254928747
73,-5846.612857744255
74,3.93046591201374
75,0.0
76,0.0
77,0.0
78,4.528990960550402
79,2.8132237976586794
80,1.4419766916697838
81,3.625
82,2.6074778420593723
83,-123.51721061469007
84,1.3323972708939906
85,2.0101570349408173
86,4.681674961871464
87,6.380897406950291
88,0.0
89,-37.96011319268705
90,0.0
91,0.0
92,0.0
93,-39.98205589669594
2,1, 4, 1, 0, 4,15.00,30.00,Tuesday
7,3.6500000000000004
8,-7.937984219818816
9,0.0
10,0.0
11,19.12
12,0.0
13,0.0
14,0.0
15,0.0
16,0.0
17,0.0
18,0.0
19,0.0
20,0.0
21,0.0
22,0.0
23,0.0
24,-110.28723867707184
25,6.026412895609317
26,1.8433648219670566
27,0.9132539351515068
28,3.6448910030432136
29,3.926677478960963
30,-524.298925872209
31,1.4218753264421657
32,2.14232732264758
33,-66.5397264196669
34,0.0
35,6.017426199336533
36,1.8428992985329067
37,0.9213909053056646
38,3.6448910030432136
39,3.9267086431797624
40,-620.4810692109176
41,1.421871544962608
42,2.142321822124631
43,-78.78399594344916
44,0.0
45,6.025907177593772
46,1.9680311245872144
47,0.9135331976453358
48,3.6448910030432136
49,4.567377230305995
50,-657.5177549701016
51,1.4229145943136703
52,2.143839028503002
53,-73.36508958582291
54,0.0
55,6.025907177582791
56,1.9680311245516442
57,0.9135331975003526
58,3.6448910030432136
59,4.567377230288262
60,-657.5177549616782
61,1.4229145943178687
62,2.1438390285091105
63,-73.36508958758819
64,0.0
65,6.817243917559977
66,6.847100495859701
67,1.178635803242465
68,6.14130409256658
69,-1.6459675491131927
70,0.9210378103840732
71,3.6300320190757716
72,4.428861349277356
73,-5759.3986116911
74,3.941098948386163
75,0.0
76,0.0
77,0.0
78,4.541120218818833
79,2.8602517728196517
80,1.434445132919937
81,3.6500000000000004
82,2.6340805404644643
83,-121.0867247413583
84,1.33490236312587
85,2.0109338878323864
86,4.556415507224093
87,6.356744858311279
88,0.0
89,-34.024349984677336
90,0.0
91,0.0
92,0.0
93,-36.02829016981196
2,1, 4, 1, 0, 4,30.00,45.00,Tuesday
7,3.6750000000000003
8,-7.643008771424832
9,0.0
10,0.0
11,19.12
12,0.0
13,0.0
14,0.0
15,0.0
16,0.0
17,0.0
18,0.0
19,0.0
20,0.0
21,0.0
22,0.0
23,0.0
24,-108.06224127589816
25,6.012021581031091
26,1.9188721127027406
27,0.9055899026309837
28,3.6698910030432135
29,3.978114624682049
30,-515.6457948513822
31,1.424784930372663
32,2.1435012602830263
33,-64.7096693645658
34,0.0
35,6.003184089229043