Program Version,EnergyPlus, Version 23.2.0-7636e6b3e9, YMD=2026.07.21 15:49
1,5,Environment Title[],Latitude[deg],Longitude[deg],Time Zone[],Elevation[m]
2,8,Day of Simulation[],Month[],Day of Month[],DST Indicator[1=yes 0=no],Hour[],StartMinute[],EndMinute[],DayType
3,5,Cumulative Day of Simulation[],Month[],Day of Month[],DST Indicator[1=yes 0=no],DayType  ! When Daily Report Variables Requested
4,2,Cumulative Days of Simulation[],Month[]  ! When Monthly Report Variables Requested
5,1,Cumulative Days of Simulation[] ! When Run Period Report Variables Requested
6,1,Calendar Year of Simulation[] ! When Annual Report Variables Requested
7,1,Environment,Site Outdoor Air Drybulb Temperature [C] !TimeStep
8,1,Environment,Site Outdoor Air Drybulb Temperature [C] !Hourly
451,1,PLENUM-1,Zone Mean Air Temperature [C] !Hourly
452,1,SPACE1-1,Zone Mean Air Temperature [C] !Hourly
453,1,SPACE2-1,Zone Mean Air Temperature [C] !Hourly
454,1,SPACE3-1,Zone Mean Air Temperature [C] !Hourly
455,1,SPACE4-1,Zone Mean Air Temperature [C] !Hourly
456,1,SPACE5-1,Zone Mean Air Temperature [C] !Hourly
901,1,TRANSFORMER 1,Transformer Efficiency [] !TimeStep
902,1,TRANSFORMER 1,Transformer Input Electricity Rate [W] !TimeStep
903,1,TRANSFORMER 1,Transformer Input Electricity Energy [J] !TimeStep
904,1,TRANSFORMER 1,Transformer Output Electricity Rate [W] !TimeStep
905,1,TRANSFORMER 1,Transformer Output Electricity Energy [J] !TimeStep
906,1,TRANSFORMER 1,Transformer No Load Loss Rate [W] !TimeStep
907,1,TRANSFORMER 1,Transformer No Load Loss Energy [J] !TimeStep
908,1,TRANSFORMER 1,Transformer Load Loss Rate [W] !TimeStep
909,1,TRANSFORMER 1,Transformer Load Loss Energy [J] !TimeStep
910,1,TRANSFORMER 1,Transformer Thermal Loss Rate [W] !TimeStep
911,1,TRANSFORMER 1,Transformer Thermal Loss Energy [J] !TimeStep
912,1,TRANSFORMER 1,Transformer Distribution Electricity Loss Energy [J] !TimeStep
End of Data Dictionary
1,WINTERDAY,  55.95,  -3.37,   0.00,  41.10
2,1, 1,14, 0, 1, 0.00,15.00,Tuesday
7,3.5
901,0.9218578895654046
902,515.2638008271874
903,463737.4207444687
904,475.0
905,427500.0
906,39.97461928934014
907,35977.15736040613
908,0.28918153784726547
909,260.26338406253893
910,40.263800827187424
911,36237.42074446868
912,36237.42074446866
2,1, 1,14, 0, 1,15.00,30.00,Tuesday
7,3.5999999999999996
901,0.9218578895654046
902,515.2638008271874
903,463737.4207444687
904,475.0
905,427500.0
906,39.97461928934014
907,35977.15736040613
908,0.28918153784726547
909,260.26338406253893
910,40.263800827187424
911,36237.42074446868
912,36237.42074446866
2,1, 1,14, 0, 1,30.00,45.00,Tuesday
7,3.6999999999999997
901,0.9218578895654046
902,515.2638008271874
903,463737.4207444687
904,475.0
905,427500.0
906,39.97461928934014
907,35977.15736040613
908,0.28918153784726547
909,260.26338406253893
910,40.263800827187424
911,36237.42074446868
912,36237.42074446866
2,1, 1,14, 0, 1,45.00,60.00,Tuesday
7,3.8
901,0.9218578895654046
902,515.2638008271874
903,463737.4207444687
904,475.0
905,427500.0
906,39.97461928934014
907,35977.15736040613
908,0.28918153784726547
909,260.26338406253893
910,40.263800827187424
911,36237.42074446868
912,36237.42074446866
2,1, 1,14, 0, 1, 0.00,60.00,Tuesday
8,3.6499999999999995
451,17.69952021932414
452,17.995994418004077
453,18.247446004067502
454,18.00664782804213
455,18.238216769203802
456,19.433441562197146
2,1, 1,14, 0, 2, 0.00,15.00,Tuesday
7,3.8499999999999996
901,0.9218578895654046
902,515.2638008271874
903,463737.4207444687
904,475.0
905,427500.0
906,39.97461928934014
907,35977.15736040613
908,0.28918153784726547
909,260.26338406253893
910,40.263800827187424
911,36237.42074446868
912,36237.42074446866
2,1, 1,14, 0, 2,15.00,30.00,Tuesday
7,3.9
901,0.9218578895654046
902,515.2638008271874
903,463737.4207444687
904,475.0
905,427500.0
906,39.97461928934014
907,35977.15736040613
908,0.28918153784726547
909,260.26338406253893
910,40.263800827187424
911,36237.42074446868
912,36237.42074446866
2,1, 1,14, 0, 2,30.00,45.00,Tuesday
7,3.95
901,0.9218578895654046
902,515.2638008271874
903,463737.4207444687
904,475.0
905,427500.0
906,39.97461928934014
907,35977.15736040613
908,0.28918153784726547
909,260.26338406253893
910,40.263800827187424
911,36237.42074446868
912,36237.42074446866
2,1, 1,14, 0, 2,45.00,60.00,Tuesday
7,4.0
901,0.9218578895654046
902,515.2638008271874
903,463737.4207444687
904,475.0
905,427500.0
906,39.97461928934014
907,35977.15736040613
908,0.28918153784726547
909,260.26338406253893
910,40.263800827187424
911,36237.42074446868
912,36237.42074446866
2,1, 1,14, 0, 2, 0.00,60.00,Tuesday
8,3.925
451,17.369349754907155
452,17.99372487088845
453,18.129730426528276
454,17.972697994017835
455,18.125253649841717
456,19.34281936908379
2,1, 1,14, 0, 3, 0.00,15.00,Tuesday
7,3.925
901,0.9218578895654046
902,515.2638008271874
903,463737.4207444687
904,475.0
905,427500.0
906,39.97461928934014
907,35977.15736040613
908,0.28918153784726547
909,260.26338406253893
910,40.263800827187424
911,36237.42074446868
912,36237.42074446866
2,1, 1,14, 0, 3,15.00,30.00,Tuesday
7,3.85
901,0.9218578895654046
902,515.2638008271874
903,463737.4207444687
904,475.0
905,427500.0
906,39.97461928934014
907,35977.15736040613
908,0.28918153784726547
909,260.26338406253893
910,40.263800827187424
911,36237.42074446868
912,36237.42074446866
2,1, 1,14, 0, 3,30.00,45.00,Tuesday
7,3.7750000000000004
901,0.9218578895654046
902,515.2638008271874
903,463737.4207444687
904,475.0
905,427500.0
906,39.97461928934014
907,35977.15736040613
908,0.28918153784726547
909,260.26338406253893
910,40.263800827187424
911,36237.42074446868
912,36237.42074446866
2,1, 1,14, 0, 3,45.00,60.00,Tuesday
7,3.7
901,0.9218578895654046
902,515.2638008271874
903,463737.4207444687
904,475.0
905,427500.0
906,39.97461928934014
907,35977.15736040613
908,0.28918153784726547
909,260.26338406253893
910,40.263800827187424
911,36237.42074446868
912,36237.42074446866
2,1, 1,14, 0, 3, 0.00,60.00,Tuesday
8,3.8125
451,17.132585459606588
452,17.934297482657136
453,18.024090396744594
454,17.906215093897973
455,18.022862819727173
456,19.25903152201746
2,1, 1,14, 0, 4, 0.00,15.00,Tuesday
7,3.6500000000000004
901,0.9218578895654046
902,515.2638008271874
903,463737.4207444687
904,475.0
905,427500.0
906,39.97461928934014
907,35977.15736040613
908,0.28918153784726547
909,260.26338406253893
910,40.263800827187424
911,36237.42074446868
912,36237.42074446866
2,1, 1,14, 0, 4,15.00,30.00,Tuesday
7,3.6
901,0.9218578895654046
902,515.2638008271874
903,463737.4207444687
904,475.0
905,427500.0
906,39.97461928934014
907,35977.15736040613
908,0.28918153784726547
909,260.26338406253893
910,40.263800827187424
911,36237.42074446868
912,36237.42074446866
2,1, 1,14, 0, 4,30.00,45.00,Tuesday
7,3.55
901,0.9218578895654046
902,515.2638008271874
903,463737.4207444687
904,475.0
905,427500.0
906,39.97461928934014
907,35977.15736040613
908,0.28918153784726547
909,260.26338406253893
910,40.263800827187424
911,36237.42074446868
912,36237.42074446866
2,1, 1,14, 0, 4,45.00,60.00,Tuesday
7,3.5
901,0.9218578895654046
902,515.2638008271874
903,463737.4207444687
904,475.0
905,427500.0
906,39.97461928934014
907,35977.15736040613
908,0.28918153784726547
909,260.26338406253893
910,40.263800827187424
911,36237.42074446868
912,36237.42074446866
2,1, 1,14, 0, 4, 0.00,60.00,Tuesday
8,3.575
451,16.956660755966652
452,17.860868844658995
453,17.92864048338486
454,17.833631806801407
455,17.92957164465082
456,19.179055787203467
2,1, 1,14, 0, 5, 0.00,15.00,Tuesday
7,3.55
901,0.9218578895654046
902,515.2638008271874
903,463737.4207444687
904,475.0
905,427500.0
906,39.97461928934014
907,35977.15736040613
908,0.28918153784726547
909,260.26338406253893
910,40.263800827187424
911,36237.42074446868
912,36237.42074446866
2,1, 1,14, 0, 5,15.00,30.00,Tuesday
7,3.6
901,0.9218578895654046
902,515.2638008271874
903,463737.4207444687
904,475.0
905,427500.0
906,39.97461928934014
907,35977.15736040613
908,0.28918153784726547
909,260.26338406253893
910,40.263800827187424
911,36237.42074446868
912,36237.42074446866
2,1, 1,14, 0, 5,30.00,45.00,Tuesday
7,3.6500000000000004
901,0.9218578895654046
902,515.2638008271874
903,463737.4207444687
904,475.0
905,427500.0
906,39.97461928934014
907,35977.15736040613
908,0.28918153784726547
909,260.26338406253893
910,40.263800827187424
911,36237.42074446868
912,36237.42074446866
2,1, 1,14, 0, 5,45.00,60.00,Tuesday
7,3.7
901,0.9218578895654046
902,515.2638008271874
903,463737.4207444687
904,475.0
905,427500.0
906,39.97461928934014
907,35977.15736040613
908,0.28918153784726547
909,260.26338406253893
910,40.263800827187424
911,36237.42074446868
912,36237.42074446866
2,1, 1,14, 0, 5, 0.00,60.00,Tuesday
8,3.625
451,16.81389414493013
452,17.819569974204143
453,17.86891784654955
454,17.79419164611323
455,17.87156539290175
456,19.135784843121915
2,1, 1,14, 0, 6, 0.00,15.00,Tuesday
7,3.8500000000000005
901,0.9218578895654046
902,515.2638008271874
903,463737.4207444687
904,475.0
905,427500.0
906,39.97461928934014
907,35977.15736040613
908,0.28918153784726547
909,260.26338406253893
910,40.263800827187424
911,36237.42074446868
912,36237.42074446866
2,1, 1,14, 0, 6,15.00,30.00,Tuesday
7,4.0
901,0.9218578895654046
902,515.2638008271874
903,463737.4207444687
904,475.0
905,427500.0
906,39.97461928934014
907,35977.15736040613
908,0.28918153784726547
909,260.26338406253893
910,40.263800827187424
911,36237.42074446868
912,36237.42074446866
2,1, 1,14, 0, 6,30.00,45.00,Tuesday
7,4.1499999999999995
901,0.9218578895654046
902,515.2638008271874
903,463737.4207444687
904,475.0
905,427500.0
906,39.97461928934014
907,35977.15736040613
908,0.28918153784726547
909,260.26338406253893
910,40.263800827187424
911,36237.42074446868
912,36237.42074446866
2,1, 1,14, 0, 6,45.00,60.00,Tuesday
7,4.3
901,0.9218578895654046
902,515.2638008271874
903,463737.4207444687
904,475.0
905,427500.0
906,39.97461928934014
907,35977.15736040613
908,0.28918153784726547
909,260.26338406253893
910,40.263800827187424
911,36237.42074446868
912,36237.42074446866
2,1, 1,14, 0, 6, 0.00,60.00,Tuesday
8,4.075
451,16.703133180312893
452,17.80230062709184
453,17.834894173019617
454,17.78003447965341
455,17.838990661475286
456,19.100501638549403
2,1, 1,14, 0, 7, 0.00,15.00,Tuesday
7,4.5249999999999995
901,0.9218578895654046
902,515.2638008271874
903,463737.4207444686
904,475.0
905,427500.0
906,39.97461928934013
907,35977.15736040613
908,0.28918153784726547
909,260.26338406253893
910,40.263800827187424
911,36237.42074446868
912,36237.42074446866
2,1, 1,14, 0, 7,15.00,30.00,Tuesday
7,4.75
901,0.9218578895654045
902,515.2638008271874
903,463737.42074446875
904,474.9999999999999
905,427500.0
906,39.97461928934013
907,35977.15736040613
908,0.28918153784726547
909,260.26338406253893
910,40.26380082718742
911,36237.42074446868
912,36237.42074446866
2,1, 1,14, 0, 7,30.00,45.00,Tuesday
7,4.9750000000000005
901,0.9218578895654046
902,515.2638008271874
903,463737.4207444687
904,475.0
905,427500.0
906,39.97461928934014
907,35977.15736040613
908,0.28918153784726547
909,260.26338406253893
910,40.263800827187424
911,36237.42074446868
912,36237.42074446866
2,1, 1,14, 0, 7,45.00,60.00,Tuesday
7,5.2
901,0.9218578895654046
902,515.2638008271874
903,463737.4207444687
904,475.0
905,427500.0
906,39.97461928934014
907,35977.15736040613
908,0.28918153784726547
909,260.26338406253893
910,40.263800827187424
911,36237.42074446868
912,36237.42074446866
2,1, 1,14, 0, 7, 0.00,60.00,Tuesday
8,4.8625
451,17.183476831180013
452,21.331883392660185
453,21.47999536889035
454,21.19511401482346
455,21.477571916362024
456,21.17322298081897
2,1, 1,14, 0, 8, 0.00,15.00,Tuesday
7,5.325
901,0.9218578895654046
902,515.2638008271874
903,463737.4207444687
904,475.0
905,427500.0
906,39.97461928934014
907,35977.15736040613
908,0.28918153784726547
909,260.26338406253893
910,40.263800827187424
911,36237.42074446868
912,36237.42074446866
2,1, 1,14, 0, 8,15.00,30.00,Tuesday
7,5.45
901,0.9218578895654046
902,515.2638008271874
903,463737.4207444687
904,475.0
905,427500.0
906,39.97461928934014
907,35977.15736040613
908,0.28918153784726547
909,260.26338406253893
910,40.263800827187424
911,36237.42074446868
912,36237.42074446866
2,1, 1,14, 0, 8,30.00,45.00,Tuesday
7,5.575
901,0.9218578895654046
902,515.2638008271874
903,463737.4207444687
904,475.0
905,427500.0
906,39.97461928934014
907,35977.15736040613
908,0.28918153784726547
909,260.26338406253893
910,40.263800827187424
911,36237.42074446868
912,36237.42074446866
2,1, 1,14, 0, 8,45.00,60.00,Tuesday
7,5.7
901,0.9218578895654046
902,515.2638008271874
903,463737.4207444687
904,475.0
905,427500.0
906,39.97461928934014
907,35977.15736040613
908,0.28918153784726547
909,260.26338406253893
910,40.263800827187424
911,36237.42074446868
912,36237.42074446866
2,1, 1,14, 0, 8, 0.00,60.00,Tuesday
8,5.5125
451,17.931662453720598
452,22.19881733411317
453,22.19919117964939
454,22.199390462193925
455,22.202385226178166
456,22.19883283633522
2,1, 1,14, 0, 9, 0.00,15.00,Tuesday
7,5.675000000000001
901,0.9828021915037373
902,8903.1140504602
903,8012802.645414181
904,8750.0
905,7875000.0
906,39.97461928934014
907,35977.15736040613
908,113.13943117086045
909,101825.4880537744
910,153.11405046020081
911,137802.64541418073
912,137802.64541418053
2,1, 1,14, 0, 9,15.00,30.00,Tuesday
7,5.65
901,0.9828021915037373
902,8903.1140504602
903,8012802.645414181
904,8750.0
905,7875000.0
906,39.97461928934014
907,35977.15736040613
908,113.13943117086045
909,101825.4880537744
910,153.11405046020081
911,137802.64541418073
912,137802.64541418053
2,1, 1,14, 0, 9,30.00,45.00,Tuesday
7,5.624999999999999
901,0.9828021915037373
902,8903.1140504602
903,8012802.645414181
904,8750.0
905,7875000.0
906,39.97461928934014
907,35977.15736040613
908,113.13943117086045
909,101825.4880537744
910,153.11405046020081
911,137802.64541418073
912,137802.64541418053
2,1, 1,14, 0, 9,45.00,60.00,Tuesday
7,5.6
901,0.9828021915037373
902,8903.1140504602
903,8012802.645414181
904,8750.0
905,7875000.0
906,39.97461928934014
907,35977.15736040613
908,113.13943117086045
909,101825.4880537744
910,153.11405046020081
911,137802.64541418073
912,137802.64541418053
2,1, 1,14, 0, 9, 0.00,60.00,Tuesday
8,5.637499999999999
451,18.956883736320727
452,22.200910305860724
453,22.201763479618954
454,22.200599470179718
455,22.200789915879078
456,22.362026260066134
2,1, 1,14, 0,10, 0.00,15.00,Tuesday
7,5.449999999999999
901,0.9784213338783279
902,11881.384427626997
903,10693245.984864298
904,11625.0
905,10462500.0
906,39.97461928934014
907,35977.15736040613
908,216.40980833765812
909,194768.8275038923
910,256.3844276269974
911,230745.98486429767
912,230745.98486429846
2,1, 1,14, 0,10,15.00,30.00,Tuesday
7,5.3
901,0.9784213338783279
902,11881.384427626997
903,10693245.984864298
904,11625.0
905,10462500.0
906,39.97461928934014
907,35977.15736040613
908,216.40980833765812
909,194768.8275038923
910,256.3844276269974
911,230745.98486429767
912,230745.98486429846
2,1, 1,14, 0,10,30.00,45.00,Tuesday
7,5.15
901,0.9784213338783279
902,11881.384427626997
903,10693245.984864298
904,11625.0
905,10462500.0
906,39.97461928934014
907,35977.15736040613
908,216.40980833765812
909,194768.8275038923
910,256.3844276269974
911,230745.98486429767
912,230745.98486429846
2,1, 1,14, 0,10,45.00,60.00,Tuesday
7,5.0
901,0.9784213338783279
902,11881.384427626997
903,10693245.984864298
904,11625.0
905,10462500.0
906,39.97461928934014
907,35977.15736040613
908,216.40980833765812
909,194768.8275038923
910,256.3844276269974
911,230745.98486429767
912,230745.98486429846
2,1, 1,14, 0,10, 0.00,60.00,Tuesday
8,5.225
451,19.832701172133838
452,22.290103643302395
453,22.488649279805973
454,22.20076441489166
455,22.2017030110394
456,23.437579851405058
2,1, 1,14, 0,11, 0.00,15.00,Tuesday
7,4.925
901,0.977742497351429
902,12273.1701163715
903,11045853.10473435
904,12000.0
905,10800000.0
906,39.97461928934014
907,35977.15736040613
908,233.19549708216002
909,209875.94737394401
910,273.1701163715006
911,245853.10473435058
912,245853.10473435014
2,1, 1,14, 0,11,15.00,30.00,Tuesday
7,4.85
901,0.977742497351429
902,12273.1701163715
903,11045853.10473435
904,12000.0
905,10800000.0
906,39.97461928934014
907,35977.15736040613
908,233.19549708216002
909,209875.94737394401
910,273.1701163715006
911,245853.10473435058
912,245853.10473435014
2,1, 1,14, 0,11,30.00,45.00,Tuesday
7,4.775
901,0.977742497351429
902,12273.1701163715
903,11045853.10473435
904,12000.0
905,10800000.0
906,39.97461928934014
907,35977.15736040613
908,233.19549708216002
909,209875.94737394401
910,273.1701163715006
911,245853.10473435058
912,245853.10473435014
2,1, 1,14, 0,11,45.00,60.00,Tuesday
7,4.7
901,0.977742497351429
902,12273.1701163715
903,11045853.10473435
904,12000.0
905,10800000.0
906,39.97461928934014
907,35977.15736040613
908,233.19549708216002
909,209875.94737394401
910,273.1701163715006
911,245853.10473435058
912,245853.10473435014
2,1, 1,14, 0,11, 0.00,60.00,Tuesday
8,4.8125
451,20.689794985956638
452,23.173258627144875
453,23.48251604138015
454,22.246885168404834
455,22.201101212208158
456,23.883836900617162
2,1, 1,14, 0,12, 0.00,15.00,Tuesday
7,4.675000000000001
901,0.9784213338783279
902,11881.384427626997
903,10693245.984864298
904,11625.0
905,10462500.0
906,39.97461928934014
907,35977.15736040613
908,216.40980833765812
909,194768.8275038923
910,256.3844276269974
911,230745.98486429767
912,230745.98486429846
2,1, 1,14, 0,12,15.00,30.00,Tuesday
7,4.65
901,0.9784213338783279
902,11881.384427626997
903,10693245.984864298
904,11625.0
905,10462500.0
906,39.97461928934014
907,35977.15736040613
908,216.40980833765812
909,194768.8275038923
910,256.3844276269974
911,230745.98486429767
912,230745.98486429846
2,1, 1,14, 0,12,30.00,45.00,Tuesday
7,4.625
901,0.9784213338783279
902,11881.384427626997
903,10693245.984864298
904,11625.0
905,10462500.0
906,39.97461928934014
907,35977.15736040613
908,216.40980833765812
909,194768.8275038923
910,256.3844276269974
911,230745.98486429767
912,230745.98486429846
2,1, 1,14, 0,12,45.00,60.00,Tuesday
7,4.6
901,0.9784213338783279
902,11881.384427626997
903,10693245.984864298
904,11625.0
905,10462500.0
906,39.97461928934014
907,35977.15736040613
908,216.40980833765812
909,194768.8275038923
910,256.3844276269974
911,230745.98486429767
912,230745.98486429846
2,1, 1,14, 0,12, 0.00,60.00,Tuesday
8,4.6375
451,21.49315935264386
452,23.887204827789724
453,23.860889228232622
454,22.246907004947026
455,22.200699599321943
456,23.89889135876628
2,1, 1,14, 0,13, 0.00,15.00,Tuesday
7,4.574999999999999
901,0.9803146629022645
902,10710.846626443687
903,9639761.963799318
904,10500.0
905,9450000.0
906,39.97461928934014
907,35977.15736040613
908,170.87200715434648
909,153784.80643891182
910,210.84662644368655
911,189761.9637993179
912,189761.96379931795
2,1, 1,14, 0,13,15.00,30.00,Tuesday
7,4.55
901,0.9803146629022645
902,10710.846626443687
903,9639761.963799318
904,10500.0
905,9450000.0
906,39.97461928934014
907,35977.15736040613
908,170.87200715434648
909,153784.80643891182
910,210.84662644368655
911,189761.9637993179
912,189761.96379931795
2,1, 1,14, 0,13,30.00,45.00,Tuesday
7,4.525
901,0.9803146629022645
902,10710.846626443687
903,9639761.963799318
904,10500.0
905,9450000.0
906,39.97461928934014
907,35977.15736040613
908,170.87200715434648
909,153784.80643891182
910,210.84662644368655
911,189761.9637993179
912,189761.96379931795
2,1, 1,14, 0,13,45.00,60.00,Tuesday
7,4.5
901,0.9803146629022645
902,10710.846626443687
903,9639761.963799318
904,10500.0
905,9450000.0
906,39.97461928934014
907,35977.15736040613
908,170.87200715434648
909,153784.80643891182
910,210.84662644368655
911,189761.9637993179
912,189761.96379931795
2,1, 1,14, 0,13, 0.00,60.00,Tuesday
8,4.5375
451,22.02706185596655
452,23.898696963095784
453,23.514049928243914
454,22.202309884499034
455,22.201391760533397
456,23.853682428334473
2,1, 1,14, 0,14, 0.00,15.00,Tuesday
7,4.425
901,0.9790765701912084
902,11490.41897489482
903,10341377.077405337
904,11250.0
905,10125000.0
906,39.97461928934014
907,35977.15736040613
908,200.44435560547947
909,180399.92004493152
910,240.41897489481926
911,216377.07740533733
912,216377.07740533765
2,1, 1,14, 0,14,15.00,30.00,Tuesday
7,4.35
901,0.9790765701912084
902,11490.41897489482
903,10341377.077405337
904,11250.0
905,10125000.0
906,39.97461928934014
907,35977.15736040613
908,200.44435560547947
909,180399.92004493152
910,240.41897489481926
911,216377.07740533733
912,216377.07740533765
2,1, 1,14, 0,14,30.00,45.00,Tuesday
7,4.275
901,0.9790765701912084
902,11490.41897489482
903,10341377.077405337
904,11250.0
905,10125000.0
906,39.97461928934014
907,35977.15736040613
908,200.44435560547947
909,180399.92004493152
910,240.41897489481926
911,216377.07740533733
912,216377.07740533765
2,1, 1,14, 0,14,45.00,60.00,Tuesday
7,4.2
901,0.9790765701912084
902,11490.41897489482
903,10341377.077405337
904,11250.0
905,10125000.0
906,39.97461928934014
907,35977.15736040613
908,200.44435560547947
909,180399.92004493152
910,240.41897489481926
911,216377.07740533733
912,216377.07740533765
2,1, 1,14, 0,14, 0.00,60.00,Tuesday
8,4.3125
451,22.636112566878907
452,23.899245429936315
453,23.362491456196906
454,22.444810443345588
455,22.201043661453724
456,23.898940250902513
2,1, 1,14, 0,15, 0.00,15.00,Tuesday
7,4.2
901,0.9786423847868655
902,11750.972754469998
903,10575875.479022998
904,11500.0
905,10350000.0
906,39.97461928934014
907,35977.15736040613
908,210.9981351806574
909,189898.32166259168
910,250.9727544699981
911,225875.4790229983
912,225875.47902299778
2,1, 1,14, 0,15,15.00,30.00,Tuesday
7,4.2
901,0.9786423847868655
902,11750.972754469998
903,10575875.479022998
904,11500.0
905,10350000.0
906,39.97461928934014
907,35977.15736040613
908,210.9981351806574
909,189898.32166259168
910,250.9727544699981
911,225875.4790229983
912,225875.47902299778
2,1, 1,14, 0,15,30.00,45.00,Tuesday
7,4.2
901,0.9786423847868655
902,11750.972754469998
903,10575875.479022998
904,11500.0
905,10350000.0
906,39.97461928934014
907,35977.15736040613
908,210.9981351806574
909,189898.32166259168
910,250.9727544699981
911,225875.4790229983
912,225875.47902299778
2,1, 1,14, 0,15,45.00,60.00,Tuesday
7,4.2
901,0.9786423847868655
902,11750.972754469998
903,10575875.479022998
904,11500.0
905,10350000.0
906,39.97461928934014
907,35977.15736040613
908,210.9981351806574
909,189898.32166259168
910,250.9727544699981
911,225875.4790229983
912,225875.47902299778
2,1, 1,14, 0,15, 0.00,60.00,Tuesday
8,4.2
451,23.066455698411655
452,23.899247515295592
453,22.824498476245445
454,22.58563250445323
455,22.201631537085785
456,23.898980076161042
2,1, 1,14, 0,16, 0.00,15.00,Tuesday
7,4.2250000000000005
901,0.979500103630909
902,11230.21831158986
903,10107196.480430875
904,11000.0
905,9900000.0
906,39.97461928934014
907,35977.15736040613
908,190.24369230052133
909,171219.3230704692
910,230.2183115898606
911,207196.48043087454
912,207196.48043087532
2,1, 1,14, 0,16,15.00,30.00,Tuesday
7,4.25
901,0.979500103630909
902,11230.21831158986
903,10107196.480430875
904,11000.0
905,9900000.0
906,39.97461928934014
907,35977.15736040613
908,190.24369230052133
909,171219.3230704692
910,230.2183115898606
911,207196.48043087454
912,207196.48043087532
2,1, 1,14, 0,16,30.00,45.00,Tuesday
7,4.2749999999999995
901,0.979500103630909
902,11230.21831158986
903,10107196.480430875
904,11000.0
905,9900000.0
906,39.97461928934014
907,35977.15736040613
908,190.24369230052133
909,171219.3230704692
910,230.2183115898606
911,207196.48043087454
912,207196.48043087532
2,1, 1,14, 0,16,45.00,60.00,Tuesday
7,4.3
901,0.979500103630909
902,11230.21831158986
903,10107196.480430875
904,11000.0
905,9900000.0
906,39.97461928934014
907,35977.15736040613
908,190.24369230052133
909,171219.3230704692
910,230.2183115898606
911,207196.48043087454
912,207196.48043087532
2,1, 1,14, 0,16, 0.00,60.00,Tuesday
8,4.2625
451,23.18916587979543
452,23.899023492413594
453,22.312814715328507
454,22.415745967188364
455,22.200859040110963
456,23.899002610125983
2,1, 1,14, 0,17, 0.00,15.00,Tuesday
7,4.35
901,0.9810847306026265
902,10192.799549390142
903,9173519.594451128
904,10000.0
905,9000000.0
906,39.97461928934014
907,35977.15736040613
908,152.82493010080225
909,137542.43709072203
910,192.7995493901417
911,173519.59445112752
912,173519.59445112813
2,1, 1,14, 0,17,15.00,30.00,Tuesday
7,4.4
901,0.9810847306026265
902,10192.799549390142
903,9173519.594451128
904,10000.0
905,9000000.0
906,39.97461928934014
907,35977.15736040613
908,152.82493010080225
909,137542.43709072203
910,192.7995493901417
911,173519.59445112752
912,173519.59445112813
2,1, 1,14, 0,17,30.00,45.00,Tuesday
7,4.45
901,0.9810847306026265
902,10192.799549390142
903,9173519.594451128
904,10000.0
905,9000000.0
906,39.97461928934014
907,35977.15736040613
908,152.82493010080225
909,137542.43709072203
910,192.7995493901417
911,173519.59445112752
912,173519.59445112813
2,1, 1,14, 0,17,45.00,60.00,Tuesday
7,4.5
901,0.9810847306026265
902,10192.799549390142
903,9173519.594451128
904,10000.0
905,9000000.0
906,39.97461928934014
907,35977.15736040613
908,152.82493010080225
909,137542.43709072203
910,192.7995493901417
911,173519.59445112752
912,173519.59445112813
2,1, 1,14, 0,17, 0.00,60.00,Tuesday
8,4.425
451,23.013900054857736
452,23.20054804283533
453,22.20255730154538
454,22.201722516129507
455,22.202376727199045
456,23.899195592429322
2,1, 1,14, 0,18, 0.00,15.00,Tuesday
7,4.5
901,0.9810847306026265
902,10192.799549390142
903,9173519.594451128
904,10000.0
905,9000000.0
906,39.97461928934014
907,35977.15736040613
908,152.82493010080225
909,137542.43709072203
910,192.7995493901417
911,173519.59445112752
912,173519.59445112813
2,1, 1,14, 0,18,15.00,30.00,Tuesday
7,4.5
901,0.9810847306026265
902,10192.799549390142
903,9173519.594451128
904,10000.0
905,9000000.0
906,39.97461928934014
907,35977.15736040613
908,152.82493010080225
909,137542.43709072203
910,192.7995493901417
911,173519.59445112752
912,173519.59445112813
2,1, 1,14, 0,18,30.00,45.00,Tuesday
7,4.5
901,0.9810847306026265
902,10192.799549390142
903,9173519.594451128
904,10000.0
905,9000000.0
906,39.97461928934014
907,35977.15736040613
908,152.82493010080225
909,137542.43709072203
910,192.7995493901417
911,173519.59445112752
912,173519.59445112813
2,1, 1,14, 0,18,45.00,60.00,Tuesday
7,4.5
901,0.9810847306026265
902,10192.799549390142
903,9173519.594451128
904,10000.0
905,9000000.0
906,39.97461928934014
907,35977.15736040613
908,152.82493010080225
909,137542.43709072203
910,192.7995493901417
911,173519.59445112752
912,173519.59445112813
2,1, 1,14, 0,18, 0.00,60.00,Tuesday
8,4.5
451,22.75563400921357
452,22.40042239806732
453,22.201534326864817
454,22.201869480406366
455,22.204162698316864
456,23.862531563500607
2,1, 1,14, 0,19, 0.00,15.00,Tuesday
7,4.375
901,0.9852495838662241
902,6089.827489655324
903,5480844.740689792
904,6000.0
905,5400000.0
906,39.97461928934014
907,35977.15736040613
908,49.85287036598337
909,44867.58332938504
910,89.82748965532392
911,80844.74068979152
912,80844.74068979117
2,1, 1,14, 0,19,15.00,30.00,Tuesday
7,4.25
901,0.9852495838662241
902,6089.827489655324
903,5480844.740689792
904,6000.0
905,5400000.0
906,39.97461928934014
907,35977.15736040613
908,49.85287036598337
909,44867.58332938504
910,89.82748965532392
911,80844.74068979152
912,80844.74068979117
2,1, 1,14, 0,19,30.00,45.00,Tuesday
7,4.125
901,0.9852495838662241
902,6089.827489655324
903,5480844.740689792
904,6000.0
905,5400000.0
906,39.97461928934014
907,35977.15736040613
908,49.85287036598337
909,44867.58332938504
910,89.82748965532392
911,80844.74068979152
912,80844.74068979117
2,1, 1,14, 0,19,45.00,60.00,Tuesday
7,4.0
901,0.9852495838662241
902,6089.827489655324
903,5480844.740689792
904,6000.0
905,5400000.0
906,39.97461928934014
907,35977.15736040613
908,49.85287036598337
909,44867.58332938504
910,89.82748965532392
911,80844.74068979152
912,80844.74068979117
2,1, 1,14, 0,19, 0.00,60.00,Tuesday
8,4.1875
451,22.166400986463984
452,22.202129146966964
453,22.2026296699838
454,22.202657138249215
455,22.201866209557462
456,22.854496969565474
2,1, 1,14, 0,20, 0.00,15.00,Tuesday
7,3.9
901,0.9830276971177706
902,3051.796006151176
903,2746616.4055360584
904,3000.0
905,2700000.0
906,39.97461928934014
907,35977.15736040613
908,11.82138686183587
909,10639.248175652283
910,51.79600615117579
911,46616.40553605821
912,46616.40553605841
2,1, 1,14, 0,20,15.00,30.00,Tuesday
7,3.8
901,0.9830276971177706
902,3051.796006151176
903,2746616.4055360584
904,3000.0
905,2700000.0
906,39.97461928934014
907,35977.15736040613
908,11.82138686183587
909,10639.248175652283
910,51.79600615117579
911,46616.40553605821
912,46616.40553605841
2,1, 1,14, 0,20,30.00,45.00,Tuesday
7,3.7
901,0.9830276971177706
902,3051.796006151176
903,2746616.4055360584
904,3000.0
905,2700000.0
906,39.97461928934014
907,35977.15736040613
908,11.82138686183587
909,10639.248175652283
910,51.79600615117579
911,46616.40553605821
912,46616.40553605841
2,1, 1,14, 0,20,45.00,60.00,Tuesday
7,3.6
901,0.9830276971177706
902,3051.796006151176
903,2746616.4055360584
904,3000.0
905,2700000.0
906,39.97461928934014
907,35977.15736040613
908,11.82138686183587
909,10639.248175652283
910,51.79600615117579
911,46616.40553605821
912,46616.40553605841
2,1, 1,14, 0,20, 0.00,60.00,Tuesday
8,3.7499999999999996
451,21.43230771751632
452,22.20336518520675
453,22.202344327034325
454,22.20257124422769
455,22.202303223073038
456,22.2050576333366
2,1, 1,14, 0,21, 0.00,15.00,Tuesday
7,3.5500000000000003
901,0.9736610276308938
902,1643.2823689093425
903,1478954.1320184083
904,1600.0
905,1440000.0
906,39.97461928934014
907,35977.15736040613
908,3.307749620002363
909,2976.974658002127
910,43.282368909342495
911,38954.13201840824
912,38954.13201840825
2,1, 1,14, 0,21,15.00,30.00,Tuesday
7,3.5
901,0.9736610276308938
902,1643.2823689093425
903,1478954.1320184083
904,1600.0
905,1440000.0
906,39.97461928934014
907,35977.15736040613
908,3.307749620002363
909,2976.974658002127
910,43.282368909342495
911,38954.13201840824
912,38954.13201840825
2,1, 1,14, 0,21,30.00,45.00,Tuesday
7,3.4499999999999997
901,0.9736610276308938
902,1643.2823689093425
903,1478954.1320184083
904,1600.0
905,1440000.0