Program Version,EnergyPlus, Version 23.2.0-7636e6b3e9, YMD=2026.07.21 15:49
1,5,Environment Title[],Latitude[deg],Longitude[deg],Time Zone[],Elevation[m]
2,8,Day of Simulation[],Month[],Day of Month[],DST Indicator[1=yes 0=no],Hour[],StartMinute[],EndMinute[],DayType
3,5,Cumulative Day of Simulation[],Month[],Day of Month[],DST Indicator[1=yes 0=no],DayType  ! When Daily Meters Requested
4,2,Cumulative Days of Simulation[],Month[]  ! When Monthly Meters Requested
5,1,Cumulative Days of Simulation[] ! When Run Period Meters Requested
6,1,Calendar Year of Simulation[] ! When Annual Meters Requested
10,1,Electricity:Facility [J] !TimeStep
22,1,Electricity:Building [J] !TimeStep
58,1,InteriorLights:Electricity [J] !TimeStep
913,1,Electricity:HVAC [J] !TimeStep
1322,1,Electricity:Plant [J] !TimeStep
1223,1,Fans:Electricity [J] !TimeStep
470,1,EnergyTransfer:Building [J] !TimeStep
End of Data Dictionary
1,WINTERDAY,  55.95,  -3.37,   0.00,  41.10
2,1, 1,14, 0, 1, 0.00,15.00,Tuesday
10,799380.6252450668
22,427500.0
58,337500.0
470,480889.8873369174
913,371880.6252450668
1223,335643.2045005982
1322,0.0
2,1, 1,14, 0, 1,15.00,30.00,Tuesday
10,799380.6252450668
22,427500.0
58,337500.0
470,475020.2921653191
913,371880.6252450668
1223,335643.2045005982
1322,0.0
2,1, 1,14, 0, 1,30.00,45.00,Tuesday
10,799380.6252450668
22,427500.0
58,337500.0
470,487299.3209105499
913,371880.6252450668
1223,335643.2045005982
1322,0.0
2,1, 1,14, 0, 1,45.00,60.00,Tuesday
10,799380.6252450668
22,427500.0
58,337500.0
470,499963.1338768439
913,371880.6252450668
1223,335643.2045005982
1322,0.0
2,1, 1,14, 0, 2, 0.00,15.00,Tuesday
10,799380.6252450668
22,427500.0
58,337500.0
470,508262.5645371318
913,371880.6252450668
1223,335643.2045005982
1322,0.0
2,1, 1,14, 0, 2,15.00,30.00,Tuesday
10,799380.6252450668
22,427500.0
58,337500.0
470,514264.4061760778
913,371880.6252450668
1223,335643.2045005982
1322,0.0
2,1, 1,14, 0, 2,30.00,45.00,Tuesday
10,799380.6252450668
22,427500.0
58,337500.0
470,519720.65253891784
913,371880.6252450668
1223,335643.2045005982
1322,0.0
2,1, 1,14, 0, 2,45.00,60.00,Tuesday
10,799380.6252450668
22,427500.0
58,337500.0
470,525460.1829562157
913,371880.6252450668
1223,335643.2045005982
1322,0.0
2,1, 1,14, 0, 3, 0.00,15.00,Tuesday
10,799380.6252450668
22,427500.0
58,337500.0
470,540970.9260267111
913,371880.6252450668
1223,335643.2045005982
1322,0.0
2,1, 1,14, 0, 3,15.00,30.00,Tuesday
10,799380.6252450668
22,427500.0
58,337500.0
470,553427.2193415834
913,371880.6252450668
1223,335643.2045005982
1322,0.0
2,1, 1,14, 0, 3,30.00,45.00,Tuesday
10,799380.6252450668
22,427500.0
58,337500.0
470,564940.2114271238
913,371880.6252450668
1223,335643.2045005982
1322,0.0
2,1, 1,14, 0, 3,45.00,60.00,Tuesday
10,799380.6252450668
22,427500.0
58,337500.0
470,579394.9126154607
913,371880.6252450668
1223,335643.2045005982
1322,0.0
2,1, 1,14, 0, 4, 0.00,15.00,Tuesday
10,799380.6252450668
22,427500.0
58,337500.0
470,594932.4157167493
913,371880.6252450668
1223,335643.2045005982
1322,0.0
2,1, 1,14, 0, 4,15.00,30.00,Tuesday
10,799380.6252450668
22,427500.0
58,337500.0
470,610455.8441431132
913,371880.6252450668
1223,335643.2045005982
1322,0.0
2,1, 1,14, 0, 4,30.00,45.00,Tuesday
10,799380.6252450668
22,427500.0
58,337500.0
470,625858.2273084137
913,371880.6252450668
1223,335643.2045005982
1322,0.0
2,1, 1,14, 0, 4,45.00,60.00,Tuesday
10,799380.6252450668
22,427500.0
58,337500.0
470,640627.8435463927
913,371880.6252450668
1223,335643.2045005982
1322,0.0
2,1, 1,14, 0, 5, 0.00,15.00,Tuesday
10,799380.6252450668
22,427500.0
58,337500.0
470,655497.3779142209
913,371880.6252450668
1223,335643.2045005982
1322,0.0
2,1, 1,14, 0, 5,15.00,30.00,Tuesday
10,799380.6252450668
22,427500.0
58,337500.0
470,671929.4912723898
913,371880.6252450668
1223,335643.2045005982
1322,0.0
2,1, 1,14, 0, 5,30.00,45.00,Tuesday
10,799380.6252450668
22,427500.0
58,337500.0
470,688870.7600977505
913,371880.6252450668
1223,335643.2045005982
1322,0.0
2,1, 1,14, 0, 5,45.00,60.00,Tuesday
10,799380.6252450668
22,427500.0
58,337500.0
470,705623.7160369626
913,371880.6252450668
1223,335643.2045005982
1322,0.0
2,1, 1,14, 0, 6, 0.00,15.00,Tuesday
10,799380.6252450668
22,427500.0
58,337500.0
470,720158.6672430354
913,371880.6252450668
1223,335643.2045005982
1322,0.0
2,1, 1,14, 0, 6,15.00,30.00,Tuesday
10,799380.6252450668
22,427500.0
58,337500.0
470,732328.3827125075
913,371880.6252450668
1223,335643.2045005982
1322,0.0
2,1, 1,14, 0, 6,30.00,45.00,Tuesday
10,799380.6252450668
22,427500.0
58,337500.0
470,743160.6776410616
913,371880.6252450668
1223,335643.2045005982
1322,0.0
2,1, 1,14, 0, 6,45.00,60.00,Tuesday
10,799380.6252450668
22,427500.0
58,337500.0
470,753252.2281701412
913,371880.6252450668
1223,335643.2045005982
1322,0.0
2,1, 1,14, 0, 7, 0.00,15.00,Tuesday
10,901313.4683544362
22,427500.0
58,337500.0
470,12945079.631399292
913,371880.6252450668
1223,335643.2045005982
1322,101932.84310936942
2,1, 1,14, 0, 7,15.00,30.00,Tuesday
10,900339.2264409959
22,427500.0
58,337500.0
470,12854954.990632912
913,371880.6252450668
1223,335643.2045005982
1322,100958.60119592915
2,1, 1,14, 0, 7,30.00,45.00,Tuesday
10,890401.9292710938
22,427500.0
58,337500.0
470,12307603.447411235
913,371880.6252450668
1223,335643.2045005982
1322,91021.30402602693
2,1, 1,14, 0, 7,45.00,60.00,Tuesday
10,872091.1809562232
22,427500.0
58,337500.0
470,11158123.0289062
913,371880.6252450668
1223,335643.2045005982
1322,72710.55571115638
2,1, 1,14, 0, 8, 0.00,15.00,Tuesday
10,853282.0110622458
22,427500.0
58,337500.0
470,10144225.485512804
913,371880.6252450668
1223,335643.2045005982
1322,53901.385817179034
2,1, 1,14, 0, 8,15.00,30.00,Tuesday
10,845111.471468219
22,427500.0
58,337500.0
470,9377095.16472908
913,371880.6252450668
1223,335643.2045005982
1322,45730.84622315214
2,1, 1,14, 0, 8,30.00,45.00,Tuesday
10,842888.1680061404
22,427500.0
58,337500.0
470,9096780.421793602
913,371880.6252450668
1223,335643.2045005982
1322,43507.54276107357
2,1, 1,14, 0, 8,45.00,60.00,Tuesday
10,840061.8080570764
22,427500.0
58,337500.0
470,8749850.251737539
913,371880.6252450668
1223,335643.2045005982
1322,40681.182812009574
2,1, 1,14, 0, 9, 0.00,15.00,Tuesday
10,8365976.483514296
22,7875000.0
58,6075000.0
470,4975497.195930579
913,473445.8499147787
1223,335643.2045005982
1322,17530.633599517605
2,1, 1,14, 0, 9,15.00,30.00,Tuesday
10,8364434.807991227
22,7875000.0
58,6075000.0
470,4437057.9833941525
913,473445.8499147787
1223,335643.2045005982
1322,15988.958076449204
2,1, 1,14, 0, 9,30.00,45.00,Tuesday
10,8363188.672233182
22,7875000.0
58,6075000.0
470,3874189.9467630126
913,473445.8499147787
1223,335643.2045005982
1322,14742.822318404265
2,1, 1,14, 0, 9,45.00,60.00,Tuesday
10,8362157.146378572
22,7875000.0
58,6075000.0
470,3456417.3092950108
913,473445.8499147787
1223,335643.2045005982
1322,13711.296463794471
2,1, 1,14, 0,10, 0.00,15.00,Tuesday
10,11040719.73185287
22,10462500.0
58,6412500.0
470,3545788.682455025
913,566389.1893648966
1223,335643.2045005982
1322,11830.542487972963
2,1, 1,14, 0,10,15.00,30.00,Tuesday
10,11042495.270799054
22,10462500.0
58,6412500.0
470,3897345.259796373
913,566389.1893648966
1223,335643.2045005982
1322,13606.081434156906
2,1, 1,14, 0,10,30.00,45.00,Tuesday
10,11045248.450133396
22,10462500.0
58,6412500.0
470,4022787.173977206
913,566389.1893648966
1223,335643.2045005982
1322,16359.260768499184
2,1, 1,14, 0,10,45.00,60.00,Tuesday
10,11047859.236312412
22,10462500.0
58,6412500.0
470,4170674.268937936
913,566389.1893648966
1223,335643.2045005982
1322,18970.04694751434
2,1, 1,14, 0,11, 0.00,15.00,Tuesday
10,11400376.517411435
22,10800000.0
58,6750000.0
470,4471061.199763412
913,581496.3092349484
1223,335643.2045005982
1322,18880.208176486703
2,1, 1,14, 0,11,15.00,30.00,Tuesday
10,11402366.901694957
22,10800000.0
58,6750000.0
470,4818535.45365413
913,583545.8063161323
1223,337692.7015817822
1322,18821.09537882551
2,1, 1,14, 0,11,30.00,45.00,Tuesday
10,11404663.27463233
22,10800000.0
58,6750000.0
470,5103814.50315512
913,585865.5737508755
1223,340012.46901652537
1322,18797.70088145318
2,1, 1,14, 0,11,45.00,60.00,Tuesday
10,11406306.313357268
22,10800000.0
58,6750000.0
470,5356200.716198688
913,587508.3622706489
1223,341655.2575362988
1322,18797.951086618043
2,1, 1,14, 0,12, 0.00,15.00,Tuesday
10,11050150.553571794
22,10462500.0
58,6412500.0
470,5172784.228483405
913,568447.9289974784
1223,337701.94413318
1322,19202.624574316334
2,1, 1,14, 0,12,15.00,30.00,Tuesday
10,11054489.619400987
22,10462500.0
58,6412500.0
470,5409263.004002347
913,572713.4785214307
1223,341967.4936571323
1322,19276.140879556842
2,1, 1,14, 0,12,30.00,45.00,Tuesday
10,11060172.295631966
22,10462500.0
58,6412500.0
470,5556270.916475576
913,578666.6934829626
1223,347920.7086186641
1322,19005.602149004862
2,1, 1,14, 0,12,45.00,60.00,Tuesday
10,11064947.678847618
22,10462500.0
58,6412500.0
470,5671093.134932694
913,583511.2272342212
1223,352765.2423699227
1322,18936.451613397687
2,1, 1,14, 0,13, 0.00,15.00,Tuesday
10,10001391.81563778
22,9450000.0
58,5400000.0
470,4708699.2429144215
913,531926.9277252775
1223,342164.96392595954
1322,19464.88791250215
2,1, 1,14, 0,13,15.00,30.00,Tuesday
10,10002786.670790961
22,9450000.0
58,5400000.0
470,4592205.78897452
913,532855.7582319097
1223,343093.7944325918
1322,19930.912559051125
2,1, 1,14, 0,13,30.00,45.00,Tuesday
10,10006130.960075494
22,9450000.0
58,5400000.0
470,4656645.459159998
913,536771.4179718036
1223,347009.4541724856
1322,19359.542103689404
2,1, 1,14, 0,13,45.00,60.00,Tuesday
10,10009767.17935668
22,9450000.0
58,5400000.0
470,4708990.623647904
913,540547.0607964351
1223,350785.09699711716
1322,19220.118560242903
2,1, 1,14, 0,14, 0.00,15.00,Tuesday
10,10728199.825714562
22,10125000.0
58,6075000.0
470,5849433.0680687055
913,594264.1774551931
1223,377887.1000498554
1322,8935.648259370533
2,1, 1,14, 0,14,15.00,30.00,Tuesday
10,10732110.715161031
22,10125000.0
58,6075000.0
470,5867404.812402841
913,598620.1692914062
1223,382243.0918860685
1322,8490.545869626329
2,1, 1,14, 0,14,30.00,45.00,Tuesday
10,10733620.19435506
22,10125000.0
58,6075000.0
470,5854434.949892964
913,600712.4044491269
1223,384335.3270437892
1322,7907.789905933853
2,1, 1,14, 0,14,45.00,60.00,Tuesday
10,10733151.38773128
22,10125000.0
58,6075000.0
470,5756074.6774846
913,600484.8857032708
1223,384107.8082979331
1322,7666.50202801167
2,1, 1,14, 0,15, 0.00,15.00,Tuesday
10,10972772.550422654
22,10350000.0
58,6750000.0
470,6053450.592885856
913,617401.4747260751
1223,391525.99570307723
1322,5371.075696577341
2,1, 1,14, 0,15,15.00,30.00,Tuesday
10,10973301.134109996
22,10350000.0
58,6750000.0
470,6015498.823335606
913,618477.6291857163
1223,392602.1501627185
1322,4823.504924279587
2,1, 1,14, 0,15,30.00,45.00,Tuesday
10,10972918.28077065
22,10350000.0
58,6750000.0
470,5971306.8077194635
913,618309.7506486436
1223,392434.2716256458
1322,4608.530122007092
2,1, 1,14, 0,15,45.00,60.00,Tuesday
10,10971845.215554891
22,10350000.0
58,6750000.0
470,5909535.799588894
913,617130.4617145892
1223,391254.9826915914
1322,4714.753840301237
2,1, 1,14, 0,16, 0.00,15.00,Tuesday
10,10493838.05368287
22,9900000.0
58,6750000.0
470,5463274.182825925
913,585711.434166821
1223,378514.9537359457
1322,8126.61951604929
2,1, 1,14, 0,16,15.00,30.00,Tuesday
10,10490991.265565153
22,9900000.0
58,6750000.0
470,5224166.666760278
913,579252.4678828478
1223,372055.98745197244
1322,11738.797682305012
2,1, 1,14, 0,16,30.00,45.00,Tuesday
10,10487305.19492311
22,9900000.0
58,6750000.0
470,4894798.728786229
913,568575.7964420165
1223,361379.3160111412
1322,18729.398481094064
2,1, 1,14, 0,16,45.00,60.00,Tuesday
10,10472016.84316812
22,9900000.0
58,6750000.0
470,4572297.037538275
913,551406.810538559
1223,344210.3301076837
1322,20610.032629562484
2,1, 1,14, 0,17, 0.00,15.00,Tuesday
10,9531212.926336514
22,9000000.0
58,6750000.0
470,3565340.726686478
913,509371.73410594964
1223,335852.13965482154
1322,21841.192230565437
2,1, 1,14, 0,17,15.00,30.00,Tuesday
10,9530468.311329288
22,9000000.0
58,6750000.0
470,3433637.2042872803
913,509375.33345132484
1223,335855.73900019674
1322,21092.97787796298
2,1, 1,14, 0,17,30.00,45.00,Tuesday
10,9530051.453425832
22,9000000.0
58,6750000.0
470,3278036.1699974593
913,509295.4792176875
1223,335775.8847665594
1322,20755.97420814455
2,1, 1,14, 0,17,45.00,60.00,Tuesday
10,9529717.976785949
22,9000000.0
58,6750000.0
470,3157816.9051169045
913,509295.50167036033
1223,335775.90721923223
1322,20422.47511558808
2,1, 1,14, 0,18, 0.00,15.00,Tuesday
10,9529436.979825074
22,9000000.0
58,6750000.0
470,3038614.334779058
913,509162.7989517263
1223,335643.2045005982
1322,20274.18087334728
2,1, 1,14, 0,18,15.00,30.00,Tuesday
10,9529322.722401477
22,9000000.0
58,6750000.0
470,2933751.9249103153
913,509162.7989517263
1223,335643.2045005982
1322,20159.923449750324
2,1, 1,14, 0,18,30.00,45.00,Tuesday
10,9529212.374488236
22,9000000.0
58,6750000.0
470,2844704.301911832
913,509162.7989517263
1223,335643.2045005982
1322,20049.57553651045
2,1, 1,14, 0,18,45.00,60.00,Tuesday
10,9529157.567196336
22,9000000.0
58,6750000.0
470,2741283.3311657156
913,509162.7989517263
1223,335643.2045005982
1322,19994.76824460951
2,1, 1,14, 0,19, 0.00,15.00,Tuesday
10,5836451.838937457
22,5400000.0
58,4050000.0
470,2188187.0143675366
913,416487.94519038935
1223,335643.2045005982
1322,19963.893747068076
2,1, 1,14, 0,19,15.00,30.00,Tuesday
10,5833175.1420233715
22,5400000.0
58,4050000.0
470,2515186.556325441
913,416487.94519038935
1223,335643.2045005982
1322,16687.196832983253
2,1, 1,14, 0,19,30.00,45.00,Tuesday
10,5833421.295165101
22,5400000.0
58,4050000.0
470,2740141.6771508697
913,416487.94519038935
1223,335643.2045005982
1322,16933.34997471262
2,1, 1,14, 0,19,45.00,60.00,Tuesday
10,5833881.509241331
22,5400000.0
58,4050000.0
470,2931744.251891229
913,416487.94519038935
1223,335643.2045005982
1322,17393.56405094307
2,1, 1,14, 0,20, 0.00,15.00,Tuesday
10,3104008.0727076866
22,2700000.0
58,1350000.0
470,3479607.819432456
913,382259.6100366566
1223,335643.2045005982
1322,21748.46267103002
2,1, 1,14, 0,20,15.00,30.00,Tuesday
10,3106359.1331206947
22,2700000.0
58,1350000.0
470,4163082.9482369195
913,382259.6100366566
1223,335643.2045005982
1322,24099.523084037937
2,1, 1,14, 0,20,30.00,45.00,Tuesday
10,3107066.3538658195
22,2700000.0
58,1350000.0
470,4321966.645235524
913,382259.6100366566
1223,335643.2045005982
1322,24806.743829162693
2,1, 1,14, 0,20,45.00,60.00,Tuesday
10,3110184.9514639284
22,2700000.0
58,1350000.0
470,5112637.846758526
913,382259.6100366566
1223,335643.2045005982
1322,27925.341427271615
2,1, 1,14, 0,21, 0.00,15.00,Tuesday
10,1814597.3365190064
22,1440000.0
58,1350000.0
470,655258.1354404485
913,374597.33651900647
1223,335643.2045005982
1322,0.0
2,1, 1,14, 0,21,15.00,30.00,Tuesday
10,1814597.3365190064
22,1440000.0
58,1350000.0
470,620550.2003953243
913,374597.33651900647
1223,335643.2045005982
1322,0.0
2,1, 1,14, 0,21,30.00,45.00,Tuesday
10,1814597.3365190064
22,1440000.0
58,1350000.0
470,618323.6129080935
913,374597.33651900647
1223,335643.2045005982
1322,0.0
2,1, 1,14, 0,21,45.00,60.00,Tuesday
10,1814597.3365190064
22,1440000.0
58,1350000.0
470,611849.5659779189
913,374597.33651900647
1223,335643.2045005982
1322,0.0
2,1, 1,14, 0,22, 0.00,15.00,Tuesday
10,799380.6252450668
22,427500.0
58,337500.0
470,491282.0945228488
913,371880.6252450668
1223,335643.2045005982
1322,0.0
2,1, 1,14, 0,22,15.00,30.00,Tuesday
10,799380.6252450668
22,427500.0
58,337500.0
470,459942.3879669498
913,371880.6252450668
1223,335643.2045005982
1322,0.0
2,1, 1,14, 0,22,30.00,45.00,Tuesday
10,799380.6252450668
22,427500.0
58,337500.0
470,436226.6296408334
913,371880.6252450668
1223,335643.2045005982
1322,0.0
2,1, 1,14, 0,22,45.00,60.00,Tuesday
10,799380.6252450668
22,427500.0
58,337500.0
470,424817.70405309845
913,371880.6252450668
1223,335643.2045005982
1322,0.0
2,1, 1,14, 0,23, 0.00,15.00,Tuesday
10,799380.6252450668
22,427500.0
58,337500.0
470,421358.7465181232
913,371880.6252450668
1223,335643.2045005982
1322,0.0
2,1, 1,14, 0,23,15.00,30.00,Tuesday
10,799380.6252450668
22,427500.0
58,337500.0
470,422196.23488503275
913,371880.6252450668
1223,335643.2045005982
1322,0.0
2,1, 1,14, 0,23,30.00,45.00,Tuesday
10,799380.6252450668
22,427500.0
58,337500.0
470,429955.7738457156
913,371880.6252450668
1223,335643.2045005982
1322,0.0
2,1, 1,14, 0,23,45.00,60.00,Tuesday
10,799380.6252450668
22,427500.0
58,337500.0
470,436385.3750708896
913,371880.6252450668
1223,335643.2045005982
1322,0.0
2,1, 1,14, 0,24, 0.00,15.00,Tuesday
10,799380.6252450668
22,427500.0
58,337500.0
470,441034.21678330185
913,371880.6252450668
1223,335643.2045005982
1322,0.0
2,1, 1,14, 0,24,15.00,30.00,Tuesday
10,799380.6252450668
22,427500.0
58,337500.0
470,448104.70605460176
913,371880.6252450668
1223,335643.2045005982
1322,0.0
2,1, 1,14, 0,24,30.00,45.00,Tuesday
10,799380.6252450668
22,427500.0
58,337500.0
470,458163.8688819423
913,371880.6252450668
1223,335643.2045005982
1322,0.0
2,1, 1,14, 0,24,45.00,60.00,Tuesday
10,799380.6252450668
22,427500.0
58,337500.0
470,469052.85604362295
913,371880.6252450668
1223,335643.2045005982
1322,0.0
1,SUMMERDAY,  55.95,  -3.37,   0.00,  41.10
2,1, 7, 7, 0, 1, 0.00,15.00,Tuesday
10,463737.4207444687
22,427500.0
58,337500.0
470,67500.00000000001
913,36237.42074446866
1223,0.0
1322,0.0
2,1, 7, 7, 0, 1,15.00,30.00,Tuesday
10,463737.4207444687
22,427500.0
58,337500.0
470,67500.00000000001
913,36237.42074446866
1223,0.0
1322,0.0
2,1, 7, 7, 0, 1,30.00,45.00,Tuesday
10,463737.4207444687
22,427500.0
58,337500.0
470,67500.00000000001
913,36237.42074446866
1223,0.0
1322,0.0
2,1, 7, 7, 0, 1,45.00,60.00,Tuesday
10,463737.4207444687
22,427500.0
58,337500.0
470,67500.00000000001
913,36237.42074446866
1223,0.0
1322,0.0
2,1, 7, 7, 0, 2, 0.00,15.00,Tuesday
10,463737.4207444687
22,427500.0
58,337500.0
470,67500.00000000001
913,36237.42074446866
1223,0.0
1322,0.0
2,1, 7, 7, 0, 2,15.00,30.00,Tuesday
10,463737.4207444687
22,427500.0
58,337500.0
470,67500.00000000001
913,36237.42074446866
1223,0.0
1322,0.0
2,1, 7, 7, 0, 2,30.00,45.00,Tuesday
10,463737.4207444687
22,427500.0
58,337500.0
470,67500.00000000001
913,36237.42074446866
1223,0.0
1322,0.0
2,1, 7, 7, 0, 2,45.00,60.00,Tuesday
10,463737.4207444687
22,427500.0
58,337500.0
470,67500.00000000001
913,36237.42074446866
1223,0.0
1322,0.0
2,1, 7, 7, 0, 3, 0.00,15.00,Tuesday
10,463737.4207444687
22,427500.0
58,337500.0
470,67500.00000000001
913,36237.42074446866
1223,0.0
1322,0.0
2,1, 7, 7, 0, 3,15.00,30.00,Tuesday
10,463737.4207444687
22,427500.0
58,337500.0
470,67500.00000000001
913,36237.42074446866
1223,0.0
1322,0.0
2,1, 7, 7, 0, 3,30.00,45.00,Tuesday
10,463737.4207444687
22,427500.0
58,337500.0
470,67500.00000000001
913,36237.42074446866
1223,0.0
1322,0.0
2,1, 7, 7, 0, 3,45.00,60.00,Tuesday
10,463737.4207444687
22,427500.0
58,337500.0
470,67500.00000000001
913,36237.42074446866
1223,0.0
1322,0.0
2,1, 7, 7, 0, 4, 0.00,15.00,Tuesday
10,463737.4207444687
22,427500.0
58,337500.0
470,67500.00000000001
913,36237.42074446866
1223,0.0
1322,0.0
2,1, 7, 7, 0, 4,15.00,30.00,Tuesday
10,463737.4207444687
22,427500.0
58,337500.0
470,67500.00000000001
913,36237.42074446866
1223,0.0
1322,0.0
2,1, 7, 7, 0, 4,30.00,45.00,Tuesday
10,463737.4207444687
22,427500.0
58,337500.0
470,67500.00000000001
913,36237.42074446866
1223,0.0
1322,0.0
2,1, 7, 7, 0, 4,45.00,60.00,Tuesday
10,463737.4207444687
22,427500.0
58,337500.0
470,67500.00000000001
913,36237.42074446866
1223,0.0
1322,0.0
2,1, 7, 7, 0, 5, 0.00,15.00,Tuesday
10,463737.4207444687
22,427500.0
58,337500.0
470,67500.00000000001
913,36237.42074446866
1223,0.0
1322,0.0
2,1, 7, 7, 0, 5,15.00,30.00,Tuesday
10,463737.4207444687
22,427500.0
58,337500.0
470,67500.00000000001
913,36237.42074446866
1223,0.0
1322,0.0
2,1, 7, 7, 0, 5,30.00,45.00,Tuesday
10,463737.4207444687
22,427500.0
58,337500.0
470,67500.00000000001
913,36237.42074446866
1223,0.0
1322,0.0
2,1, 7, 7, 0, 5,45.00,60.00,Tuesday
10,463737.4207444687
22,427500.0
58,337500.0
470,67500.00000000001
913,36237.42074446866
1223,0.0
1322,0.0
2,1, 7, 7, 0, 6, 0.00,15.00,Tuesday
10,463737.4207444687
22,427500.0
58,337500.0
470,67500.00000000001
913,36237.42074446866
1223,0.0
1322,0.0
2,1, 7, 7, 0, 6,15.00,30.00,Tuesday
10,463737.4207444687
22,427500.0
58,337500.0
470,67500.00000000001
913,36237.42074446866
1223,0.0
1322,0.0
2,1, 7, 7, 0, 6,30.00,45.00,Tuesday
10,463737.4207444687
22,427500.0
58,337500.0
470,67500.00000000001
913,36237.42074446866
1223,0.0
1322,0.0
2,1, 7, 7, 0, 6,45.00,60.00,Tuesday
10,463737.4207444687
22,427500.0
58,337500.0
470,67500.00000000001
913,36237.42074446866
1223,0.0
1322,0.0
2,1, 7, 7, 0, 7, 0.00,15.00,Tuesday
10,1898000.2291439476
22,427500.0
58,337500.0
470,8530874.491292728
913,371880.6252450668
1223,335643.20450059813
1322,1098619.603898881
2,1, 7, 7, 0, 7,15.00,30.00,Tuesday
10,1885840.02831194
22,427500.0
58,337500.0
470,5100838.505367168
913,371880.6252450668
1223,335643.2045005982
1322,1086459.403066873
2,1, 7, 7, 0, 7,30.00,45.00,Tuesday
10,1906677.5592222016
22,427500.0
58,337500.0
470,4348452.5444423575
913,371880.6252450668
1223,335643.2045005982
1322,1107296.933977135
2,1, 7, 7, 0, 7,45.00,60.00,Tuesday
10,1928714.6955993904
22,427500.0
58,337500.0
470,3751386.8014262873
913,371880.6252450668
1223,335643.2045005982
1322,1129334.0703543236
2,1, 7, 7, 0, 8, 0.00,15.00,Tuesday
10,1956450.8790245764
22,427500.0
58,337500.0
470,3263229.0933048828
913,371880.6252450668
1223,335643.2045005982
1322,1157070.2537795093
2,1, 7, 7, 0, 8,15.00,30.00,Tuesday
10,1983090.187295052
22,427500.0
58,337500.0
470,2909638.943831217
913,371880.6252450668
1223,335643.2045005982
1322,1183709.5620499854
2,1, 7, 7, 0, 8,30.00,45.00,Tuesday
10,2011195.6800669793
22,427500.0
58,337500.0
470,2603876.397474199
913,371880.6252450668
1223,335643.2045005982
1322,1211815.0548219124
2,1, 7, 7, 0, 8,45.00,60.00,Tuesday
10,2039888.7463197727
22,427500.0
58,337500.0
470,2356695.9864930725
913,371880.6252450668
1223,335643.2045005982
1322,1240508.1210747059
2,1, 7, 7, 0, 9, 0.00,15.00,Tuesday
10,9605419.2909117
22,7875000.0
58,6075000.0
470,4285524.196960876
913,473445.8499147787
1223,335643.2045005982
1322,1256973.4409969219
2,1, 7, 7, 0, 9,15.00,30.00,Tuesday
10,9646956.223586757
22,7875000.0
58,6075000.0
470,4484390.508793857
913,473445.8499147787
1223,335643.2045005982
1322,1298510.3736719778
2,1, 7, 7, 0, 9,30.00,45.00,Tuesday
10,9679203.600614298
22,7875000.0
58,6075000.0
470,4569436.294405962
913,473445.8499147787
1223,335643.2045005982
1322,1330757.7506995206
2,1, 7, 7, 0, 9,45.00,60.00,Tuesday
10,9709849.518741684
22,7875000.0
58,6075000.0
470,4627268.261785423
913,473445.8499147787
1223,335643.2045005982
1322,1361403.6688269055
2,1, 7, 7, 0,10, 0.00,15.00,Tuesday
10,12444848.78852055
22,10462500.0
58,6412500.0
470,4920235.106502422
913,566389.1893648966
1223,335643.2045005982
1322,1415959.5991556542
2,1, 7, 7, 0,10,15.00,30.00,Tuesday
10,12561436.875308366
22,10462500.0
58,6412500.0
470,5770487.455090455
913,576084.9862679704
1223,345339.0014036719
1322,1522851.8890403965
2,1, 7, 7, 0,10,30.00,45.00,Tuesday
10,12687080.215375785
22,10462500.0
58,6412500.0
470,6206460.758930359
913,582284.0728497369
1223,351538.08798543847
1322,1642296.1425260468
2,1, 7, 7, 0,10,45.00,60.00,Tuesday
10,12770249.859357808
22,10462500.0
58,6412500.0
470,6192634.09772039
913,583008.1758820997
1223,352262.19101780123
1322,1724741.683475709
2,1, 7, 7, 0,11, 0.00,15.00,Tuesday
10,13272948.70176669
22,10800000.0
58,6750000.0
470,6614740.339134986
913,604982.7012102805
1223,359129.5964759304
1322,1867966.0005564084
2,1, 7, 7, 0,11,15.00,30.00,Tuesday
10,13431352.823889188
22,10800000.0
58,6750000.0
470,6964366.939712876
913,613522.6773499526
1223,367669.5726156025
1322,2017830.146539236
2,1, 7, 7, 0,11,30.00,45.00,Tuesday
10,13540007.173263205
22,10800000.0
58,6750000.0
470,7097534.947391119
913,618688.9280586643
1223,372835.8233243142
1322,2121318.245204542
2,1, 7, 7, 0,11,45.00,60.00,Tuesday
10,13629644.671276087
22,10800000.0
58,6750000.0
470,7183177.2534797145
913,623230.2377338638
1223,377377.13299951365
1322,2206414.4335422236
2,1, 7, 7, 0,12, 0.00,15.00,Tuesday
10,13197752.082060304
22,10462500.0
58,6412500.0
470,6696979.498240413
913,600285.0402174739
1223,369539.0553531754
1322,2134967.041842831
2,1, 7, 7, 0,12,15.00,30.00,Tuesday
10,13226777.294258827
22,10462500.0
58,6412500.0
470,6692663.962298404
913,601867.4727921512
1223,371121.48792785266
1322,2162409.821466677
2,1, 7, 7, 0,12,30.00,45.00,Tuesday
10,13251994.111786976
22,10462500.0
58,6412500.0
470,6666695.830550002
913,603166.0418971366
1223,372420.0570328381
1322,2186328.0698898397
2,1, 7, 7, 0,12,45.00,60.00,Tuesday
10,13273369.20703258
22,10462500.0
58,6412500.0
470,6633508.131735084
913,604279.1050027156
1223,373533.1201384172
1322,2206590.102029863
2,1, 7, 7, 0,13, 0.00,15.00,Tuesday
10,11955384.173039205
22,9450000.0
58,5400000.0
470,5504247.98622614
913,544345.942236427
1223,354583.97843710904
1322,1961038.2308027775
2,1, 7, 7, 0,13,15.00,30.00,Tuesday
10,11940505.066042313
22,9450000.0
58,5400000.0
470,5418529.283954926
913,543405.8554784972
1223,353643.8916791793
1322,1947099.2105638161
2,1, 7, 7, 0,13,30.00,45.00,Tuesday
10,11942985.030878726
22,9450000.0
58,5400000.0
470,5349455.218131444
913,543389.8998334089
1223,353627.936034091
1322,1949595.1310453163
2,1, 7, 7, 0,13,45.00,60.00,Tuesday
10,11948697.28027107
22,9450000.0
58,5400000.0
470,5305167.791607218
913,543622.9425423588
1223,353860.97874304076
1322,1955074.337728709
2,1, 7, 7, 0,14, 0.00,15.00,Tuesday
10,12897908.549785681
22,10125000.0
58,6075000.0
470,6192229.7533669025
913,587693.8288905344
1223,371316.75148519664
1322,2185214.720895147
2,1, 7, 7, 0,14,15.00,30.00,Tuesday
10,12922472.498197589
22,10125000.0
58,6075000.0
470,6225443.087122508
913,590045.4992484706
1223,373668.42184313294
1322,2207426.9989491184
2,1, 7, 7, 0,14,30.00,45.00,Tuesday
10,12948582.117326178
22,10125000.0
58,6075000.0
470,6258530.900944804
913,591665.0183860102
1223,375287.94098067255
1322,2231917.0989401676
2,1, 7, 7, 0,14,45.00,60.00,Tuesday
10,12981113.598523684
22,10125000.0
58,6075000.0
470,6281314.087479316
913,593222.4874147628
1223,376845.41000942513
1322,2262891.1111089215
2,1, 7, 7, 0,15, 0.00,15.00,Tuesday
10,13309010.903769223
22,10350000.0
58,6750000.0
470,6596012.32198317
913,609199.5041319425
1223,383324.0251089448
1322,2349811.39963728
2,1, 7, 7, 0,15,15.00,30.00,Tuesday
10,13381657.905119406
22,10350000.0
58,6750000.0
470,6699157.972165167
913,613718.0446838313
1223,387842.5656608335
1322,2417939.860435574
2,1, 7, 7, 0,15,30.00,45.00,Tuesday
10,13428042.231353967
22,10350000.0
58,6750000.0
470,6732639.896584587
913,616110.9127095381
1223,390235.4336865403
1322,2461931.31864443
2,1, 7, 7, 0,15,45.00,60.00,Tuesday
10,13468770.476197941
22,10350000.0
58,6750000.0
470,6758310.920491112
913,618243.5010922713
1223,392368.0220692735
1322,2500526.9751056707
2,1, 7, 7, 0,16, 0.00,15.00,Tuesday
10,12932711.708794782
22,9900000.0
58,6750000.0
470,6500205.708539113
913,592548.3233139166
1223,385351.8428830413
1322,2440163.385480866
2,1, 7, 7, 0,16,15.00,30.00,Tuesday
10,12948373.567535993
22,9900000.0
58,6750000.0
470,6491699.264567726
913,593320.1932494972
1223,386123.7128186219
1322,2455053.3742864947
2,1, 7, 7, 0,16,30.00,45.00,Tuesday
10,12970403.529818151
22,9900000.0
58,6750000.0
470,6494015.105141057
913,594493.7748986555
1223,387297.2944677801
1322,2475909.7549194964
2,1, 7, 7, 0,16,45.00,60.00,Tuesday
10,12991431.624354022
22,9900000.0
58,6750000.0
470,6500412.194631675
913,595687.6628525327
1223,388491.1824216574
1322,2495743.961501488
2,1, 7, 7, 0,17, 0.00,15.00,Tuesday
10,11878596.465116696
22,9000000.0
58,6750000.0
470,5988392.531389069
913,547608.6859453412
1223,374089.0914942131
1322,2330987.779171355
2,1, 7, 7, 0,17,15.00,30.00,Tuesday
10,11879558.832724024
22,9000000.0
58,6750000.0
470,5974107.465628398
913,547847.3721891158
1223,374327.77773798775
1322,2331711.460534909
2,1, 7, 7, 0,17,30.00,45.00,Tuesday
10,11903495.01046508
22,9000000.0
58,6750000.0
470,5989802.846565491
913,549207.5248195766
1223,375687.93036844855
1322,2354287.485645504
2,1, 7, 7, 0,17,45.00,60.00,Tuesday
10,11920541.897332119
22,9000000.0
58,6750000.0
470,5988394.444036867
913,549931.9593274874
1223,376412.3648763593
1322,2370609.9380046315
2,1, 7, 7, 0,18, 0.00,15.00,Tuesday
10,11941283.57298952
22,9000000.0
58,6750000.0
470,5978616.830355221
913,550308.7977933328
1223,376789.2033422047
1322,2390974.7751961867
2,1, 7, 7, 0,18,15.00,30.00,Tuesday
10,11972060.34187715
22,9000000.0
58,6750000.0
470,6003935.951313724
913,551486.9310626817
1223,377967.3366115536
1322,2420573.4108144683
2,1, 7, 7, 0,18,30.00,45.00,Tuesday
10,11997384.924200924
22,9000000.0
58,6750000.0
470,6021424.627422065
913,552456.4711253729
1223,378936.8766742448
1322,2444928.453075552
2,1, 7, 7, 0,18,45.00,60.00,Tuesday
10,12006369.933367092
22,9000000.0
58,6750000.0
470,6020477.248283088
913,552446.8930006364
1223,378927.2985495082
1322,2453923.040366456
2,1, 7, 7, 0,19, 0.00,15.00,Tuesday
10,7722369.157743708
22,5400000.0
58,4050000.0
470,4231586.048926656
913,422998.73686886986
1223,342153.9961790787
1322,1899370.420874839
2,1, 7, 7, 0,19,15.00,30.00,Tuesday
10,7666139.998321795
22,5400000.0
58,4050000.0
470,4235183.357884928
913,423544.8921008412
1223,342700.15141105006
1322,1842595.1062209536
2,1, 7, 7, 0,19,30.00,45.00,Tuesday
10,7669525.598890525
22,5400000.0
58,4050000.0
470,4166573.466211461
913,423378.8723451197
1223,342534.13165532856
1322,1846146.726545406
2,1, 7, 7, 0,19,45.00,60.00,Tuesday
10,7664013.836008337
22,5400000.0
58,4050000.0
470,4035060.952727597
913,422699.2893961136
1223,341854.54870632244
1322,1841314.546612224
2,1, 7, 7, 0,20, 0.00,15.00,Tuesday
10,4864437.082200061
22,2700000.0
58,1350000.0
470,3953914.9295559544
913,385263.5647613742
1223,338647.1592253158
1322,1779173.517438687
2,1, 7, 7, 0,20,15.00,30.00,Tuesday
10,4818254.964758262
22,2700000.0
58,1350000.0
470,3682977.1522381622
913,383917.26925459696
1223,337300.86371853855
1322,1734337.6955036656
2,1, 7, 7, 0,20,30.00,45.00,Tuesday
10,4770968.429959444
22,2700000.0