Program Version,EnergyPlus, Version 23.2.0-7636e6b3e9, YMD=2026.07.24 09:08
1,5,Environment Title[],Latitude[deg],Longitude[deg],Time Zone[],Elevation[m]
2,8,Day of Simulation[],Month[],Day of Month[],DST Indicator[1=yes 0=no],Hour[],StartMinute[],EndMinute[],DayType
3,5,Cumulative Day of Simulation[],Month[],Day of Month[],DST Indicator[1=yes 0=no],DayType  ! When Daily Report Variables Requested
4,2,Cumulative Days of Simulation[],Month[]  ! When Monthly Report Variables Requested
5,1,Cumulative Days of Simulation[] ! When Run Period Report Variables Requested
6,1,Calendar Year of Simulation[] ! When Annual Report Variables Requested
7,1,Environment,Site Outdoor Air Drybulb Temperature [C] !TimeStep
8,1,Environment,Site Sky Temperature [C] !TimeStep
9,1,Environment,Site Diffuse Solar Radiation Rate per Area [W/m2] !TimeStep
10,1,Environment,Site Direct Solar Radiation Rate per Area [W/m2] !TimeStep
11,1,Environment,Site Ground Temperature [C] !TimeStep
12,1,ZONE ONE,Zone Total Internal Radiant Heating Rate [W] !TimeStep
13,1,ZONE ONE,Zone Total Internal Convective Heating Rate [W] !TimeStep
14,1,ZONE ONE,Zone Windows Total Transmitted Solar Radiation Rate [W] !TimeStep
15,1,ZN001:WALL001,Surface Outside Face Sunlit Fraction [] !TimeStep
16,1,ZN001:WALL001,Surface Outside Face Incident Solar Radiation Rate per Area [W/m2] !TimeStep
17,1,ZN001:WALL002,Surface Outside Face Incident Solar Radiation Rate per Area [W/m2] !TimeStep
18,1,ZN001:WALL003,Surface Outside Face Incident Solar Radiation Rate per Area [W/m2] !TimeStep
19,1,ZN001:WALL004,Surface Outside Face Incident Solar Radiation Rate per Area [W/m2] !TimeStep
20,1,ZN001:ROOF001,Surface Outside Face Incident Solar Radiation Rate per Area [W/m2] !TimeStep
21,1,ZN001:WALL001:WIN001,Surface Outside Face Sunlit Fraction [] !TimeStep
22,1,ZN001:WALL001:WIN001,Surface Outside Face Incident Solar Radiation Rate per Area [W/m2] !TimeStep
23,1,ZN001:WALL001:WIN001,Surface Window Transmitted Solar Radiation Rate [W] !TimeStep
24,1,ZN001:WALL001:WIN001,Surface Window Net Heat Transfer Rate [W] !TimeStep
25,1,ZN001:WALL001,Surface Inside Face Temperature [C] !TimeStep
26,1,ZN001:WALL001,Surface Outside Face Temperature [C] !TimeStep
27,1,ZN001:WALL001,Surface Outside Face Outdoor Air Drybulb Temperature [C] !TimeStep
28,1,ZN001:WALL001,Surface Outside Face Convection Heat Transfer Coefficient [W/m2-K] !TimeStep
29,1,ZN001:WALL001,Surface Outside Face Net Thermal Radiation Heat Gain Rate [W] !TimeStep
30,1,ZN001:WALL001,Surface Outside Face Thermal Radiation to Sky Heat Transfer Coefficient [W/m2-K] !TimeStep
31,1,ZN001:WALL001,Surface Outside Face Thermal Radiation to Ground Heat Transfer Coefficient [W/m2-K] !TimeStep
32,1,ZN001:WALL001,Surface Outside Face Thermal Radiation to Air Heat Transfer Rate [W] !TimeStep
33,1,ZN001:WALL001,Surface Outside Face Solar Radiation Heat Gain Rate [W] !TimeStep
34,1,ZN001:WALL002,Surface Inside Face Temperature [C] !TimeStep
35,1,ZN001:WALL002,Surface Outside Face Temperature [C] !TimeStep
36,1,ZN001:WALL002,Surface Outside Face Outdoor Air Drybulb Temperature [C] !TimeStep
37,1,ZN001:WALL002,Surface Outside Face Convection Heat Transfer Coefficient [W/m2-K] !TimeStep
38,1,ZN001:WALL002,Surface Outside Face Net Thermal Radiation Heat Gain Rate [W] !TimeStep
39,1,ZN001:WALL002,Surface Outside Face Thermal Radiation to Sky Heat Transfer Coefficient [W/m2-K] !TimeStep
40,1,ZN001:WALL002,Surface Outside Face Thermal Radiation to Ground Heat Transfer Coefficient [W/m2-K] !TimeStep
41,1,ZN001:WALL002,Surface Outside Face Thermal Radiation to Air Heat Transfer Rate [W] !TimeStep
42,1,ZN001:WALL002,Surface Outside Face Solar Radiation Heat Gain Rate [W] !TimeStep
43,1,ZN001:WALL003,Surface Inside Face Temperature [C] !TimeStep
44,1,ZN001:WALL003,Surface Outside Face Temperature [C] !TimeStep
45,1,ZN001:WALL003,Surface Outside Face Outdoor Air Drybulb Temperature [C] !TimeStep
46,1,ZN001:WALL003,Surface Outside Face Convection Heat Transfer Coefficient [W/m2-K] !TimeStep
47,1,ZN001:WALL003,Surface Outside Face Net Thermal Radiation Heat Gain Rate [W] !TimeStep
48,1,ZN001:WALL003,Surface Outside Face Thermal Radiation to Sky Heat Transfer Coefficient [W/m2-K] !TimeStep
49,1,ZN001:WALL003,Surface Outside Face Thermal Radiation to Ground Heat Transfer Coefficient [W/m2-K] !TimeStep
50,1,ZN001:WALL003,Surface Outside Face Thermal Radiation to Air Heat Transfer Rate [W] !TimeStep
51,1,ZN001:WALL003,Surface Outside Face Solar Radiation Heat Gain Rate [W] !TimeStep
52,1,ZN001:WALL004,Surface Inside Face Temperature [C] !TimeStep
53,1,ZN001:WALL004,Surface Outside Face Temperature [C] !TimeStep
54,1,ZN001:WALL004,Surface Outside Face Outdoor Air Drybulb Temperature [C] !TimeStep
55,1,ZN001:WALL004,Surface Outside Face Convection Heat Transfer Coefficient [W/m2-K] !TimeStep
56,1,ZN001:WALL004,Surface Outside Face Net Thermal Radiation Heat Gain Rate [W] !TimeStep
57,1,ZN001:WALL004,Surface Outside Face Thermal Radiation to Sky Heat Transfer Coefficient [W/m2-K] !TimeStep
58,1,ZN001:WALL004,Surface Outside Face Thermal Radiation to Ground Heat Transfer Coefficient [W/m2-K] !TimeStep
59,1,ZN001:WALL004,Surface Outside Face Thermal Radiation to Air Heat Transfer Rate [W] !TimeStep
60,1,ZN001:WALL004,Surface Outside Face Solar Radiation Heat Gain Rate [W] !TimeStep
61,1,ZN001:FLR001,Surface Inside Face Temperature [C] !TimeStep
62,1,ZN001:FLR001,Surface Outside Face Temperature [C] !TimeStep
63,1,ZN001:ROOF001,Surface Inside Face Temperature [C] !TimeStep
64,1,ZN001:ROOF001,Surface Outside Face Temperature [C] !TimeStep
65,1,ZN001:ROOF001,Surface Outside Face Outdoor Air Drybulb Temperature [C] !TimeStep
66,1,ZN001:ROOF001,Surface Outside Face Convection Heat Transfer Coefficient [W/m2-K] !TimeStep
67,1,ZN001:ROOF001,Surface Outside Face Net Thermal Radiation Heat Gain Rate [W] !TimeStep
68,1,ZN001:ROOF001,Surface Outside Face Thermal Radiation to Sky Heat Transfer Coefficient [W/m2-K] !TimeStep
69,1,ZN001:ROOF001,Surface Outside Face Thermal Radiation to Ground Heat Transfer Coefficient [W/m2-K] !TimeStep
70,1,ZN001:ROOF001,Surface Outside Face Thermal Radiation to Air Heat Transfer Rate [W] !TimeStep
71,1,ZN001:ROOF001,Surface Outside Face Solar Radiation Heat Gain Rate [W] !TimeStep
72,1,ZN001:WALL001:WIN001,Surface Inside Face Temperature [C] !TimeStep
73,1,ZN001:WALL001:WIN001,Surface Outside Face Temperature [C] !TimeStep
74,1,ZN001:WALL001:WIN001,Surface Outside Face Outdoor Air Drybulb Temperature [C] !TimeStep
75,1,ZN001:WALL001:WIN001,Surface Outside Face Convection Heat Transfer Coefficient [W/m2-K] !TimeStep
76,1,ZN001:WALL001:WIN001,Surface Outside Face Net Thermal Radiation Heat Gain Rate [W] !TimeStep
77,1,ZN001:WALL001:WIN001,Surface Outside Face Thermal Radiation to Sky Heat Transfer Coefficient [W/m2-K] !TimeStep
78,1,ZN001:WALL001:WIN001,Surface Outside Face Thermal Radiation to Ground Heat Transfer Coefficient [W/m2-K] !TimeStep
79,1,ZN001:WALL001:WIN001,Surface Outside Face Thermal Radiation to Air Heat Transfer Rate [W] !TimeStep
80,1,ZONE ONE,Zone Mean Air Temperature [C] !TimeStep
81,1,ZONE ONE,Zone Air Heat Balance Internal Convective Heat Gain Rate [W] !TimeStep
82,1,ZONE ONE,Zone Air Heat Balance Surface Convection Rate [W] !TimeStep
83,1,ZONE ONE,Zone Air Heat Balance Interzone Air Transfer Rate [W] !TimeStep
84,1,ZONE ONE,Zone Air Heat Balance Outdoor Air Transfer Rate [W] !TimeStep
85,1,ZONE ONE,Zone Air Heat Balance System Air Transfer Rate [W] !TimeStep
86,1,ZONE ONE,Zone Air Heat Balance Air Energy Storage Rate [W] !TimeStep
End of Data Dictionary
1,RUN PERIOD 1,  55.95,  -3.37,   0.00,  41.10
2,1, 7, 1, 0, 1, 0.00,15.00,Saturday
7,11.524999999999999
8,6.247163656077078
9,0.0
10,0.0
11,19.07
12,0.0
13,0.0
14,0.0
15,0.0
16,0.0
17,0.0
18,0.0
19,0.0
20,0.0
21,0.0
22,0.0
23,0.0
24,-182.28717838387067
25,17.279827176537744
26,11.119007167275292
27,11.519891003043211
28,9.865688527885206
29,-391.108936752917
30,1.6163444722717217
31,2.350414564787505
32,-16.244921650647814
33,0.0
34,17.263853920883143
35,11.086953110066352
36,11.519891003043211
37,8.78464244742516
38,-452.58563468713254
39,1.6164246368010877
40,2.3505293465984565
41,-20.767861675837857
42,0.0
43,17.26385392088314
44,11.086953110066352
45,11.519891003043211
46,8.78464244742516
47,-452.58563468713254
48,1.6164246368010877
49,2.3505293465984565
50,-20.767861675837857
51,0.0
52,17.265923661560066
53,11.118611641162836
54,11.519891003043211
55,9.86552640383121
56,-462.8309090852219
57,1.616341063978406
58,2.350409684697008
59,-19.248234352471712
60,0.0
61,18.241358430990367
62,18.281755817295426
63,17.513528628691713
64,10.093526179777582
65,11.50503201907577
66,11.495288205372495
67,-4079.3286782079917
68,4.566343206807379
69,0.0
70,0.0
71,0.0
72,15.014073993585498
73,12.427107264054769
74,11.524999999999999
75,5.8647344702961295
76,-117.1159708154264
77,1.5198278901151212
78,2.209872499900245
79,-5.713016433724448
80,17.720062183854335
81,0.0
82,-64.46874724270955
83,0.0
84,0.0
85,0.0
86,-58.46174989313633
2,1, 7, 1, 0, 1,15.00,30.00,Saturday
7,11.95
8,1.7952572663021442
9,0.0
10,0.0
11,19.07
12,0.0
13,0.0
14,0.0
15,0.0
16,0.0
17,0.0
18,0.0
19,0.0
20,0.0
21,0.0
22,0.0
23,0.0
24,-187.53626953675004
25,17.2194830958352
26,11.0003670478674
27,11.944891003043212
28,9.448353078624285
29,-685.0223810989639
30,1.5779129269486325
31,2.3545791303386587
32,-38.34253949895379
33,0.0
34,17.200926690472745
35,10.931986855884885
36,11.944891003043212
37,8.478208997519197
38,-788.7083467730155
39,1.577638645947257
40,2.3541818708925675
41,-48.66411903873933
42,0.0
43,17.200926690472755
44,10.931986855884885
45,11.944891003043212
46,8.478208997519197
47,-788.7083467730155
48,1.577638645947257
49,2.3541818708925675
50,-48.66411903873933
51,0.0
52,17.20517845844197
53,10.999955487352738
54,11.944891003043212
55,9.448287112360125
56,-810.7346328631384
57,1.5779095422456162
58,2.354574228053233
59,-45.406190208222455
60,0.0
61,18.1997109205322
62,18.241358430990367
63,17.436391726744716
64,9.115404088709774
65,11.930032019075771
66,11.008361199925378
67,-7545.7360294438995
68,4.438251232909501
69,0.0
70,0.0
71,0.0
72,14.88471330972908
73,12.221314374031863
74,11.95
75,5.643077248606465
76,-158.86307846882232
77,1.483199031739874
78,2.212845188085932
79,-1.7202035712831887
80,17.671113918200906
81,0.0
82,-77.72391161567279
83,0.0
84,0.0
85,0.0
86,-70.230807334163
2,1, 7, 1, 0, 1,30.00,45.00,Saturday
7,12.375000000000002
8,-2.884055518863761
9,0.0
10,0.0
11,19.07
12,0.0
13,0.0
14,0.0
15,0.0
16,0.0
17,0.0
18,0.0
19,0.0
20,0.0
21,0.0
22,0.0
23,0.0
24,-193.38314136028626
25,17.152047441883763
26,10.856529268486117
27,12.369891003043215
28,9.096049767045313
29,-971.7767070790318
30,1.5381825767140485
31,2.3583906570237914
32,-61.53371001425342
33,0.0
34,17.13128264956974
35,10.758443707658788
36,12.369891003043215
37,8.239968369748839
38,-1118.5256451799576
39,1.5376042672929582
40,2.3575428911007705
41,-77.5311479108464
42,0.0
43,17.13128264956974
44,10.758443707658783
45,12.369891003043215
46,8.239968369748839
47,-1118.525645179956
48,1.5376042672929582
49,2.3575428911007705
50,-77.53114791084666
51,0.0
52,17.137309962942954
53,10.856097070566015
54,12.369891003043215
55,9.096010842751049
56,-1150.1625698164046
57,1.5381790954710537
58,2.3583855537548333
59,-72.85880966724552
60,0.0
61,18.156370692416303
62,18.1997109205322
63,17.352229615444248
64,8.064808740048681
65,12.355032019075773
66,10.596918046165936
67,-10949.320059710524
68,4.305743407154586
69,0.0
70,0.0
71,0.0
72,14.742627283101342
73,11.992827008328902
74,12.375000000000002
75,5.434279798052959
76,-199.59467812487583
77,1.4453043452931351
78,2.215394758004043
79,2.4255814519325005
80,17.614100399613694
81,0.0
82,-87.5240094124471
83,0.0
84,0.0
85,0.0
86,-81.81701941965308
2,1, 7, 1, 0, 1,45.00,60.00,Saturday
7,12.8
8,-7.819875967085466
9,0.0
10,0.0
11,19.07
12,0.0
13,0.0
14,0.0
15,0.0
16,0.0
17,0.0
18,0.0
19,0.0
20,0.0
21,0.0
22,0.0
23,0.0
24,-199.3716511542233
25,17.077807231982995
26,10.687966641265449
27,12.794891003043213
28,8.77110861615897
29,-1251.5404243701255
30,1.497080076256931
31,2.3618980176794566
32,-85.7955361753584
33,0.0
34,17.05528334026654
35,10.567529787804837
36,12.794891003043213
37,8.027162132607343
38,-1442.4690836543439
39,1.4962608092621836
40,2.3606816614258053
41,-107.30713133352103
42,0.0
43,17.05528334026654
44,10.567529787804837
45,12.794891003043213
46,8.027162132607343
47,-1442.4690836543439
48,1.4962608092621836
49,2.3606816614258053
50,-107.30713133352103
51,0.0
52,17.06263233187235
53,10.687512413047239
54,12.794891003043213
55,8.771083332155197
56,-1481.3152381742111
57,1.4970764654407236
58,2.361892656780032
59,-101.57883438134408
60,0.0
61,18.111057152021843
62,18.156370692416303
63,17.261229940047954
64,6.938142466585155
65,12.780032019075772
66,10.211722489413514
67,-14289.429451742712
68,4.16885611617159
69,0.0
70,0.0
71,0.0
72,14.592440436040988
73,11.753303812917864
74,12.8
75,5.367911397232622
76,-239.82061333708776
77,1.4061594293895432
78,2.2176875494939354
79,6.649686469917008
80,17.550419260890756
81,0.0
82,-95.4988444817426
83,0.0
84,0.0
85,0.0
86,-91.40333995271511
2,1, 7, 1, 0, 2, 0.00,15.00,Saturday
7,12.725000000000001
8,-7.525293383948849
9,0.0
10,0.0
11,19.07
12,0.0
13,0.0
14,0.0
15,0.0
16,0.0
17,0.0
18,0.0
19,0.0
20,0.0
21,0.0
22,0.0
23,0.0
24,-198.50676070639622
25,17.02716566989036
26,10.625726241508433
27,12.719891003043214
28,8.597004050833998
29,-1223.8821717853439
30,1.4980251459104008
31,2.3588740391658454
32,-85.16677544049264
33,0.0
34,17.005341156754188
35,10.515507375639487
36,12.719891003043214
37,7.9153932482775895
38,-1412.83006784621
39,1.4970193573469017
40,2.357382024269326
41,-106.05170372719276
42,0.0
43,17.005341156754188
44,10.515507375639487
45,12.719891003043214
46,7.9153932482775895
47,-1412.83006784621
48,1.4970193573469017
49,2.357382024269326
50,-106.05170372719276
51,0.0
52,17.011967450423946
53,10.625244537801022
54,12.719891003043214
55,8.596980139909236
56,-1448.5671335664085
57,1.4980213514753387
58,2.3588684104425655
59,-100.83584759287835
60,0.0
61,18.066699054262987
62,18.111057152021843
63,17.213091028006957
64,6.899714342140403
65,12.705032019075773
66,9.984602828957396
67,-13901.321361824599
68,4.149254701387669
69,0.0
70,0.0
71,0.0
72,14.535704477102968
73,11.702083568948638
74,12.725000000000001
75,5.291982841841105
76,-236.08997038077115
77,1.4064842757845661
78,2.2140274586174864
79,6.494302393453106
80,17.488001900479794
81,0.0
82,-84.8877146167936
83,0.0
84,0.0
85,0.0
86,-89.60864339185868
2,1, 7, 1, 0, 2,15.00,30.00,Saturday
7,12.65
8,-7.23168764496387
9,0.0
10,0.0
11,19.07
12,0.0
13,0.0
14,0.0
15,0.0
16,0.0
17,0.0
18,0.0
19,0.0
20,0.0
21,0.0
22,0.0
23,0.0
24,-197.97654791965857
25,16.97387947609104
26,10.563515328107613
27,12.644891003043213
28,8.428711464208886
29,-1196.9880252309815
30,1.4998532578506831
31,2.3571693580170097
32,-84.58548965732788
33,0.0
34,16.952661268970868
35,10.462955885036706
36,12.644891003043213
37,7.808674106670004
38,-1384.1595734808077
39,1.4989324135851323
40,2.355804532833537
41,-104.90147406649963
42,0.0
43,16.952661268970868
44,10.462955885036706
45,12.644891003043213
46,7.808674106670004
47,-1384.1595734808077
48,1.4989324135851323
49,2.355804532833537
50,-104.90147406649963
51,0.0
52,16.95871840908292
53,10.563022879679652
54,12.644891003043213
55,8.428686988708987
56,-1416.728693250763
57,1.4998492323010097
58,2.357163391612232
59,-100.14826011404665
60,0.0
61,18.021796922887972
62,18.066699054262987
63,17.161042103792017
64,6.84668801926297
65,12.630032019075772
66,9.788003032184767
67,-13585.873335046466
68,4.154943070109831
69,0.0
70,0.0
71,0.0
72,14.489932996967354
73,11.661956970366191
74,12.65
75,5.195085428990685
76,-232.83697873671062
77,1.4082802094638895
78,2.2125586654275726
79,6.269101114842297
80,17.431324924593152
81,0.0
82,-75.10472489984004
83,0.0
84,0.0
85,0.0
86,-81.38340809295273
2,1, 7, 1, 0, 2,30.00,45.00,Saturday
7,12.575
8,-6.9390512251527525
9,0.0
10,0.0
11,19.07
12,0.0
13,0.0
14,0.0
15,0.0
16,0.0
17,0.0
18,0.0
19,0.0
20,0.0
21,0.0
22,0.0
23,0.0
24,-197.4576218208167
25,16.92313546803359
26,10.501848078996037
27,12.569891003043212
28,8.26023706807235
29,-1170.240139954407
30,1.5016766444757883
31,2.355465865581201
32,-83.98291988055101
33,0.0
34,16.902525652276918
35,10.41093383397291
36,12.569891003043212
37,7.701119270254706
38,-1355.6493033429924
39,1.5008361505395036
40,2.354221205592086
41,-103.72699570928073
42,0.0
43,16.902525652276918
44,10.41093383397291
45,12.569891003043212
46,7.701119270254706
47,-1355.6493033429924
48,1.5008361505395036
49,2.354221205592086
50,-103.72699570928073
51,0.0
52,16.908001372749396
53,10.50135065560001
54,12.569891003043212
55,8.260212992508857
56,-1385.065353735069
57,1.5016725275098843
58,2.355459768942662
59,-99.43520944006072
60,0.0
61,17.976711847457672
62,18.021796922887972
63,17.111435779087557
64,6.79458440537226
65,12.555032019075771
66,9.590712355681474
67,-13270.21358640986
68,4.160279014166899
69,0.0
70,0.0
71,0.0
72,14.444453023096344
73,11.622708311905683
74,12.575
75,5.096673798260925
76,-229.6208803493675
77,1.4101585773414471
78,2.2112193746541053
79,6.0386300869977
80,17.379837972123983
81,0.0
82,-70.4681714647219
83,0.0
84,0.0
85,0.0
86,-73.94406939144312
2,1, 7, 1, 0, 2,45.00,60.00,Saturday
7,12.5
8,-6.6473766902308284
9,0.0
10,0.0
11,19.07
12,0.0
13,0.0
14,0.0
15,0.0
16,0.0
17,0.0
18,0.0
19,0.0
20,0.0
21,0.0
22,0.0
23,0.0
24,-197.0010706806215
25,16.8742505250413
26,10.440520941786826
27,12.494891003043213
28,8.091608518087693
29,-1143.587317537105
30,1.5034996386507478
31,2.3537699238423775
32,-83.36759878377445
33,0.0
34,16.854254299547268
35,10.35919038611856
36,12.494891003043213
37,7.59274595669568
38,-1327.2280495616478
39,1.5027394431252326
40,2.3526451437126785
41,-102.54094249203573
42,0.0
43,16.854254299547268
44,10.35919038611856
45,12.494891003043213
46,7.59274595669568
47,-1327.2280495616478
48,1.5027394431252326
49,2.3526451437126785
50,-102.54094249203573
51,0.0
52,16.85914965501782
53,10.440018482300362
54,12.494891003043213
55,8.091585193141015
56,-1353.5145695305193
57,1.5034954784504924
58,2.353763768475693
59,-98.7070706610978
60,0.0
61,17.931599023859956
62,17.976711847457672
63,17.063578745318676
64,6.742978158321556
65,12.480032019075772
66,9.393121054014316
67,-12955.135511287159
68,4.165622783175323
69,0.0
70,0.0
71,0.0
72,14.40087348466767
73,11.584710234245335
74,12.5
75,4.9978381509554834
76,-226.45767719140127
77,1.4120393621648917
78,2.209890834051068
79,5.800545805409947
80,17.331406377872455
81,0.0
82,-68.38395873931411
83,0.0
84,0.0
85,0.0
86,-69.56764943482646
2,1, 7, 1, 0, 3, 0.00,15.00,Saturday
7,12.45
8,-6.705635000260486
9,0.0
10,0.0
11,19.07
12,0.0
13,0.0
14,0.0
15,0.0
16,0.0
17,0.0
18,0.0
19,0.0
20,0.0
21,0.0
22,0.0
23,0.0
24,-197.4118508530645
25,16.82107100436368
26,10.344903869663355
27,12.444891003043212
28,7.808735179174781
29,-1131.3468857218322
30,1.5025195300618743
31,2.3523896803927795
32,-85.16879556300326
33,0.0
34,16.80192847168644
35,10.277268888066903
36,12.444891003043212
37,7.4088541068495335
38,-1317.167066706139
39,1.5018397496379248
40,2.3513838532475635
41,-104.01778713138691
42,0.0
43,16.80192847168644
44,10.277268888066903
45,12.444891003043212
46,7.4088541068495335
47,-1317.167066706139
48,1.5018397496379248
49,2.3513838532475635
50,-104.01778713138691
51,0.0
52,16.805974166716915
53,10.344394382177844
54,12.444891003043212
55,7.808714013688051
56,-1339.0232998141632
57,1.5025153295656395
58,2.3523834652237583
59,-100.83948311076688
60,0.0
61,17.88602685509917
62,17.931599023859956
63,17.010175333817205
64,6.551080008502431
65,12.430032019075771
66,9.062156517946471
67,-12818.115644145582
68,4.163114268154846
69,0.0
70,0.0
71,0.0
72,14.34661450932515
73,11.524051221020386
74,12.45
75,4.838309014737802
76,-225.97834928485454
77,1.4113038146744088
78,2.208868103847077
79,5.864681756492265
80,17.28338403173621
81,0.0
82,-69.95284377237536
83,0.0
84,0.0
85,0.0
86,-68.99120677086005
2,1, 7, 1, 0, 3,15.00,30.00,Saturday
7,12.4
8,-6.763931550078951
9,0.0
10,0.0
11,19.07
12,0.0
13,0.0
14,0.0
15,0.0
16,0.0
17,0.0
18,0.0
19,0.0
20,0.0
21,0.0
22,0.0
23,0.0
24,-197.78628056906712
25,16.768076051573825
26,10.24740325329032
27,12.394891003043213
28,7.524440400302096
29,-1118.4027907850464
30,1.5012530293409203
31,2.3505860348178267
32,-87.02849093114116
33,0.0
34,16.74981134901804
35,10.194181448653197
36,12.394891003043213
37,7.221788130357011
38,-1306.5277319073919
39,1.5006880400306508
40,2.349750029141875
41,-105.53217723468683
42,0.0
43,16.74981134901804
44,10.194181448653197
45,12.394891003043213
46,7.221788130357011
47,-1306.5277319073919
48,1.5006880400306508
49,2.349750029141875
50,-105.53217723468683
51,0.0
52,16.752975755471276
53,10.246883071069291
54,12.394891003043213
55,7.52442208577563
56,-1323.6979566589582
57,1.501248772644451
58,2.350579736280305
59,-103.04131066906031
60,0.0
61,17.84018400038842
62,17.88602685509917
63,16.956960058635033
64,6.353619573969077
65,12.380032019075772
66,8.727306836425166
67,-12665.993965981013
68,4.157349892495265
69,0.0
70,0.0
71,0.0
72,14.290800077690847
73,11.461825381832227
74,12.4
75,4.681265195201821
76,-225.4325618709926
77,1.4103905173133766
78,2.2075827564516777
79,5.938609569014009
80,17.23439721262451
81,0.0
82,-71.72747021673366
83,0.0
84,0.0
85,0.0
86,-70.38868724618544
2,1, 7, 1, 0, 3,30.00,45.00,Saturday
7,12.350000000000001
8,-6.822266398304009
9,0.0
10,0.0
11,19.07
12,0.0
13,0.0
14,0.0
15,0.0
16,0.0
17,0.0
18,0.0
19,0.0
20,0.0
21,0.0
22,0.0
23,0.0
24,-198.16114664207475
25,16.714169141191597
26,10.147639598570073
27,12.344891003043214
28,7.2403854617323375
29,-1104.8650711744183
30,1.4999712169261075
31,2.348760070248404
32,-88.97602753189841
33,0.0
34,16.696831239492063
35,10.109566079314257
36,12.344891003043214
37,7.032533818733944
38,-1295.414873844764
39,1.4995268833951723
40,2.348102575154456
41,-107.11695804357507
42,0.0
43,16.696831239492063
44,10.109566079314257
45,12.344891003043214
46,7.032533818733944
47,-1295.414873844764
48,1.4995268833951723
49,2.348102575154456
50,-107.11695804357507
51,0.0
52,16.6990691183389
53,10.147107648211012
54,12.344891003043214
55,7.2403700873747106
56,-1307.6695766650937
57,1.4999668735222587
58,2.3487536431921283
59,-105.34716485350943
60,0.0
61,17.79399461006892
62,17.84018400038842
63,16.90279402800283
64,6.148073227275853
65,12.330032019075773
66,8.39191556264846
67,-12506.111583349673
68,4.151461523152936
69,0.0
70,0.0
71,0.0
72,14.23465094108775
73,11.399158091852314
74,12.350000000000001
75,4.5242138367612
76,-224.86881782505114
77,1.4094650446605643
78,2.2062797378195906
79,6.01522614066124
80,17.18428562619319
81,0.0
82,-72.88971332495493
83,0.0
84,0.0
85,0.0
86,-72.01728255456842
2,1, 7, 1, 0, 3,45.00,60.00,Saturday
7,12.3
8,-6.880639603694988
9,0.0
10,0.0
11,19.07
12,0.0
13,0.0
14,0.0
15,0.0
16,0.0
17,0.0
18,0.0
19,0.0
20,0.0
21,0.0
22,0.0
23,0.0
24,-198.5246085833948
25,16.65935069301697
26,10.04553086229898
27,12.294891003043213
28,6.956702830725243
29,-1090.7113234559295
30,1.4986709546185144
31,2.3469071404837294
32,-91.01427367233629
33,0.0
34,16.642986657509976
35,10.023365915445552
36,12.294891003043213
37,6.841007127750176
38,-1283.809135983028
39,1.49835327520951
40,2.3464370439082427
41,-108.77446342023278
42,0.0
43,16.642986657509976
44,10.023365915445552
45,12.294891003043213
46,6.841007127750176
47,-1283.809135983028
48,1.49835327520951
49,2.3464370439082427
50,-108.77446342023278
51,0.0
52,16.644251893443986
53,10.04498672211032
54,12.294891003043213
55,6.9566906357152885
56,-1290.9118678838665
57,1.4986665157069277
58,2.3469005718746234
59,-107.76041081881729
60,0.0
61,17.747420480227486
62,17.79399461006892
63,16.847667396773826
64,5.933860130439852
65,12.280032019075772
66,8.056007366399973
67,-12337.782438591916
68,4.145391163608273
69,0.0
70,0.0
71,0.0
72,14.177800631063121
73,11.335907329194868
74,12.3
75,4.367049036470926
76,-224.2810538988566
77,1.4085362304528692
78,2.2049721164158838
79,6.095419392886776
80,17.1332899217452
81,0.0
82,-73.80790029993906
83,0.0
84,0.0
85,0.0
86,-73.30075735683617
2,1, 7, 1, 0, 4, 0.00,15.00,Saturday
7,12.275000000000002
8,-5.951238527387829
9,0.0
10,0.0
11,19.07
12,0.0
13,0.0
14,0.0
15,0.0
16,0.0
17,0.0
18,0.0
19,0.0
20,0.0
21,0.0
22,0.0
23,0.0
24,-194.14495087319048
25,16.63320280791193
26,10.152078006739016
27,12.269891003043215
28,7.067761762095335
29,-1048.1315755802855
30,1.5052757680158388
31,2.345336415605558
32,-85.63422312462777
33,0.0
34,16.61663196369065
35,10.124617034249015
36,12.269891003043215
37,6.9163496469206525
38,-1231.8487665217024
39,1.5050905024970933
40,2.3450628803167555
41,-102.66862857994442
42,0.0
43,16.61663196369065
44,10.124617034249015
45,12.269891003043215
46,6.9163496469206525
47,-1231.8487665217024
48,1.5050905024970933
49,2.3450628803167555
50,-102.66862857994442
51,0.0
52,16.61829533133246
53,10.151522482127014
54,12.269891003043215
55,7.067749293155423
56,-1240.506036010089
57,1.5052712195876963
58,2.345329700087769
59,-101.39252137815558
60,0.0
61,17.702719404292825
62,17.747420480227486
63,16.82155514520128
64,6.276083428412698
65,12.255032019075774
66,8.185813178018492
67,-11817.661583604393
68,4.1613118908859725
69,0.0
70,0.0
71,0.0
72,14.188357392411774
73,11.406394416300316
74,12.275000000000002
75,4.435683613574547
76,-216.37749444060495
77,1.4150224957692907
78,2.203948592354764
79,5.493019920145785
80,17.08658569922898
81,0.0
82,-61.56831831414404
83,0.0
84,0.0
85,0.0
86,-67.1431898828962
2,1, 7, 1, 0, 4,15.00,30.00,Saturday
7,12.25
8,-5.031435730263695
9,0.0
10,0.0
11,19.07
12,0.0
13,0.0
14,0.0
15,0.0
16,0.0
17,0.0
18,0.0
19,0.0
20,0.0
21,0.0
22,0.0
23,0.0
24,-190.1713505254506
25,16.605258803315007
26,10.25385291441546
27,12.244891003043213
28,7.1840253620426875
29,-1005.5981444824235
30,1.513581506263332
31,2.346341488878596
32,-80.54255353580065
33,0.0
34,16.588676274350032
35,10.222043560762563
36,12.244891003043213
37,6.9953019895133774
38,-1180.077217051367
39,1.5133513568561527
40,2.34600245055099
41,-96.8483213668573
42,0.0
43,16.588676274350032
44,10.222043560762563
45,12.244891003043213
46,6.9953019895133774
47,-1180.077217051367
48,1.5133513568561527
49,2.34600245055099
50,-96.8483213668573
51,0.0
52,16.590604231167834
53,10.253308937162597
54,12.244891003043213
55,7.184009427503614
56,-1190.1621011599518
57,1.5135768501303868
58,2.346334629834387
59,-95.36492308346486
60,0.0
61,17.658625541987046
62,17.702719404292825
63,16.79371417874215
64,6.600967671428759
65,12.230032019075772
66,8.325806340679733
67,-11320.243625799167
68,4.190022786372864
69,0.0
70,0.0
71,0.0
72,14.207339801082867
73,11.482535425394076
74,12.25
75,4.486502569037228
76,-208.71922651133292
77,1.4225179271261716
78,2.2044751987439923
79,4.854713089553011
80,17.046511258938498
81,0.0
82,-51.72606680046284
83,0.0
84,0.0
85,0.0
86,-57.62014342850323
2,1, 7, 1, 0, 4,30.00,45.00,Saturday
7,12.224999999999998
8,-4.121003057659834
9,7.5
10,6.5
11,19.07
12,0.0
13,0.0
14,24.92085313058223
15,0.0
16,4.073093485299696
17,9.396308110315235
18,9.137349041523901
19,4.073093485299696
20,7.540058642658336
21,0.0
22,4.073093485299696
23,24.92085313058223
24,-158.9344117899112
25,16.62359378489245
26,10.605146311399945
27,12.21989100304321
28,7.301167878176382
29,-1029.990068841703
30,1.521808637399082
31,2.3472881534852355
32,-65.34688327126342
33,179.81707581346654
34,16.631961496594972
35,10.90949821006608
36,12.21989100304321
37,7.074557056557943
38,-1315.6069349407483
39,1.5215413397828808
40,2.346895268748836
41,-62.761846280796824
42,491.0318933765291
43,16.63091100540351
44,10.893225304449663
45,12.21989100304321
46,7.074557056557943
47,-1310.441303064804
48,1.5215413397828808
49,2.346895268748836
50,-63.54124434091517
51,477.49922071799426
52,16.612219443584422
53,10.605117462846279
54,12.21989100304321
55,7.301148924098718
56,-1219.1983104191534
57,1.5218040659529506
58,2.3472814342027624
59,-77.35302350981358
60,212.85155643105207
61,17.619557012841927
62,17.658625541987046
63,16.81177817729376
64,7.359554236048268
65,12.20503201907577
66,8.46616210408706
67,-11247.758681639712
68,4.21825748491464
69,0.0
70,0.0
71,1313.4269431523119
72,14.265563829592907
73,11.596789246613184
74,12.224999999999998
75,4.5363301504676725
76,-202.70465969905314
77,1.4300203886051714
78,2.2050675714284833
79,3.9757065557980917
80,17.019644655550852
81,0.0
82,-25.9816124301886
83,0.0
84,0.0
85,0.0
86,-38.63322112101244
2,1, 7, 1, 0, 4,45.00,60.00,Saturday
7,12.2
8,-3.2197207632237905
9,15.0
10,13.0
11,19.07
12,0.0
13,0.0
14,48.9097634592902
15,0.0
16,7.993869145238597
17,23.346886110278952
18,21.10197596976399
19,7.993869145238597
20,15.43385979314413
21,0.0
22,7.993869145238597
23,48.9097634592902
24,-129.4464832839247
25,16.648067507506035
26,10.937593651603132
27,12.194891003043212
28,7.431116400412604
29,-1051.0787723031804
30,1.5321015380650418
31,2.351320493199243
32,-50.968803189922816
33,352.90969365672055
34,16.698954817502138
35,11.861051425974726
36,12.194891003043212
37,7.183367754464635
38,-1540.947147023658
39,1.534670906735944
40,2.3550885590624575
41,-16.0452160669541
42,1220.060640475513
43,16.689936499837877
44,11.721737522372008
45,12.194891003043212
46,7.182284524772187
47,-1496.3589472707924
48,1.5345334343922419
49,2.354886954351351
50,-22.739065287232876
51,1102.746216148888
52,16.639788915083436
53,10.937647362790344
54,12.194891003043212
55,7.4311148672673575
56,-1244.1910344537848
57,1.5321012947003787
58,2.351320136290893
59,-60.329776452973185
60,417.7432940371128
61,17.584135724498832
62,17.619557012841927
63,16.83706952378882
64,8.113290932236403
65,12.180032019075771
66,8.617978233101057
67,-11204.121914654948
68,4.256597198626395
69,0.0
70,0.0
71,2688.473425719114
72,14.34006221729112
73,11.716923974084693
74,12.2
75,4.5802448026963845
76,-196.94944638593282
77,1.4377877613071524
78,2.2061022926252587
79,3.058733331168648
80,17.00876376517719
81,0.0