Program Version,EnergyPlus, Version 23.2.0-7636e6b3e9, YMD=2026.07.21 21:27
1,5,Environment Title[],Latitude[deg],Longitude[deg],Time Zone[],Elevation[m]
2,8,Day of Simulation[],Month[],Day of Month[],DST Indicator[1=yes 0=no],Hour[],StartMinute[],EndMinute[],DayType
3,5,Cumulative Day of Simulation[],Month[],Day of Month[],DST Indicator[1=yes 0=no],DayType  ! When Daily Report Variables Requested
4,2,Cumulative Days of Simulation[],Month[]  ! When Monthly Report Variables Requested
5,1,Cumulative Days of Simulation[] ! When Run Period Report Variables Requested
6,1,Calendar Year of Simulation[] ! When Annual Report Variables Requested
7,1,Environment,Site Outdoor Air Drybulb Temperature [C] !TimeStep
8,1,Environment,Site Diffuse Solar Radiation Rate per Area [W/m2] !TimeStep
9,1,Environment,Site Direct Solar Radiation Rate per Area [W/m2] !TimeStep
10,1,Environment,Site Ground Temperature [C] !TimeStep
11,1,ZONE ONE,Zone Total Internal Radiant Heating Rate [W] !TimeStep
12,1,ZONE ONE,Zone Total Internal Convective Heating Rate [W] !TimeStep
13,1,ZONE ONE,Zone Windows Total Transmitted Solar Radiation Rate [W] !TimeStep
14,1,ZN001:WALL001,Surface Outside Face Sunlit Fraction [] !TimeStep
15,1,ZN001:WALL001,Surface Outside Face Incident Solar Radiation Rate per Area [W/m2] !TimeStep
16,1,ZN001:WALL002,Surface Outside Face Incident Solar Radiation Rate per Area [W/m2] !TimeStep
17,1,ZN001:WALL003,Surface Outside Face Incident Solar Radiation Rate per Area [W/m2] !TimeStep
18,1,ZN001:WALL004,Surface Outside Face Incident Solar Radiation Rate per Area [W/m2] !TimeStep
19,1,ZN001:ROOF001,Surface Outside Face Incident Solar Radiation Rate per Area [W/m2] !TimeStep
20,1,ZN001:WALL001:WIN001,Surface Outside Face Sunlit Fraction [] !TimeStep
21,1,ZN001:WALL001:WIN001,Surface Outside Face Incident Solar Radiation Rate per Area [W/m2] !TimeStep
22,1,ZN001:WALL001:WIN001,Surface Window Transmitted Solar Radiation Rate [W] !TimeStep
23,1,ZN001:WALL001:WIN001,Surface Window Net Heat Transfer Rate [W] !TimeStep
24,1,ZN001:WALL001,Surface Inside Face Temperature [C] !TimeStep
25,1,ZN001:WALL001,Surface Outside Face Temperature [C] !TimeStep
26,1,ZN001:WALL002,Surface Inside Face Temperature [C] !TimeStep
27,1,ZN001:WALL002,Surface Outside Face Temperature [C] !TimeStep
28,1,ZN001:WALL003,Surface Inside Face Temperature [C] !TimeStep
29,1,ZN001:WALL003,Surface Outside Face Temperature [C] !TimeStep
30,1,ZN001:WALL004,Surface Inside Face Temperature [C] !TimeStep
31,1,ZN001:WALL004,Surface Outside Face Temperature [C] !TimeStep
32,1,ZN001:FLR001,Surface Inside Face Temperature [C] !TimeStep
33,1,ZN001:FLR001,Surface Outside Face Temperature [C] !TimeStep
34,1,ZN001:ROOF001,Surface Inside Face Temperature [C] !TimeStep
35,1,ZN001:ROOF001,Surface Outside Face Temperature [C] !TimeStep
36,1,ZN001:WALL001:WIN001,Surface Inside Face Temperature [C] !TimeStep
37,1,ZN001:WALL001:WIN001,Surface Outside Face Temperature [C] !TimeStep
38,1,ZONE ONE,Zone Mean Air Temperature [C] !TimeStep
39,1,ZONE ONE,Zone Air Heat Balance Outdoor Air Transfer Rate [W] !TimeStep
End of Data Dictionary
1,RUN PERIOD 1,  55.95,  -3.37,   0.00,  41.10
2,1, 7, 1, 0, 1, 0.00,15.00,Saturday
7,11.524999999999999
8,0.0
9,0.0
10,19.07
11,0.0
12,0.0
13,0.0
14,0.0
15,0.0
16,0.0
17,0.0
18,0.0
19,0.0
20,0.0
21,0.0
22,0.0
23,-182.28717838387067
24,17.279827176537744
25,11.119007167275292
26,17.263853920883143
27,11.086953110066352
28,17.26385392088314
29,11.086953110066352
30,17.265923661560066
31,11.118611641162836
32,18.241358430990367
33,18.281755817295426
34,17.513528628691713
35,10.093526179777582
36,15.014073993585498
37,12.427107264054769
38,17.720062183854335
39,0.0
2,1, 7, 1, 0, 1,15.00,30.00,Saturday
7,11.95
8,0.0
9,0.0
10,19.07
11,0.0
12,0.0
13,0.0
14,0.0
15,0.0
16,0.0
17,0.0
18,0.0
19,0.0
20,0.0
21,0.0
22,0.0
23,-187.53626953675004
24,17.2194830958352
25,11.0003670478674
26,17.200926690472745
27,10.931986855884885
28,17.200926690472755
29,10.931986855884885
30,17.20517845844197
31,10.999955487352738
32,18.1997109205322
33,18.241358430990367
34,17.436391726744716
35,9.115404088709774
36,14.88471330972908
37,12.221314374031863
38,17.671113918200906
39,0.0
2,1, 7, 1, 0, 1,30.00,45.00,Saturday
7,12.375000000000002
8,0.0
9,0.0
10,19.07
11,0.0
12,0.0
13,0.0
14,0.0
15,0.0
16,0.0
17,0.0
18,0.0
19,0.0
20,0.0
21,0.0
22,0.0
23,-193.38314136028626
24,17.152047441883763
25,10.856529268486117
26,17.13128264956974
27,10.758443707658788
28,17.13128264956974
29,10.758443707658783
30,17.137309962942954
31,10.856097070566015
32,18.156370692416303
33,18.1997109205322
34,17.352229615444248
35,8.064808740048681
36,14.742627283101342
37,11.992827008328902
38,17.614100399613694
39,0.0
2,1, 7, 1, 0, 1,45.00,60.00,Saturday
7,12.8
8,0.0
9,0.0
10,19.07
11,0.0
12,0.0
13,0.0
14,0.0
15,0.0
16,0.0
17,0.0
18,0.0
19,0.0
20,0.0
21,0.0
22,0.0
23,-199.3716511542233
24,17.077807231982995
25,10.687966641265449
26,17.05528334026654
27,10.567529787804837
28,17.05528334026654
29,10.567529787804837
30,17.06263233187235
31,10.687512413047239
32,18.111057152021843
33,18.156370692416303
34,17.261229940047954
35,6.938142466585155
36,14.592440436040988
37,11.753303812917864
38,17.550419260890756
39,0.0
2,1, 7, 1, 0, 2, 0.00,15.00,Saturday
7,12.725000000000001
8,0.0
9,0.0
10,19.07
11,0.0
12,0.0
13,0.0
14,0.0
15,0.0
16,0.0
17,0.0
18,0.0
19,0.0
20,0.0
21,0.0
22,0.0
23,-198.50676070639622
24,17.02716566989036
25,10.625726241508433
26,17.005341156754188
27,10.515507375639487
28,17.005341156754188
29,10.515507375639487
30,17.011967450423946
31,10.625244537801022
32,18.066699054262987
33,18.111057152021843
34,17.213091028006957
35,6.899714342140403
36,14.535704477102968
37,11.702083568948638
38,17.488001900479794
39,0.0
2,1, 7, 1, 0, 2,15.00,30.00,Saturday
7,12.65
8,0.0
9,0.0
10,19.07
11,0.0
12,0.0
13,0.0
14,0.0
15,0.0
16,0.0
17,0.0
18,0.0
19,0.0
20,0.0
21,0.0
22,0.0
23,-197.97654791965857
24,16.97387947609104
25,10.563515328107613
26,16.952661268970868
27,10.462955885036706
28,16.952661268970868
29,10.462955885036706
30,16.95871840908292
31,10.563022879679652
32,18.021796922887972
33,18.066699054262987
34,17.161042103792017
35,6.84668801926297
36,14.489932996967354
37,11.661956970366191
38,17.431324924593152
39,0.0
2,1, 7, 1, 0, 2,30.00,45.00,Saturday
7,12.575
8,0.0
9,0.0
10,19.07
11,0.0
12,0.0
13,0.0
14,0.0
15,0.0
16,0.0
17,0.0
18,0.0
19,0.0
20,0.0
21,0.0
22,0.0
23,-197.4576218208167
24,16.92313546803359
25,10.501848078996037
26,16.902525652276918
27,10.41093383397291
28,16.902525652276918
29,10.41093383397291
30,16.908001372749396
31,10.50135065560001
32,17.976711847457672
33,18.021796922887972
34,17.111435779087557
35,6.79458440537226
36,14.444453023096344
37,11.622708311905683
38,17.379837972123983
39,0.0
2,1, 7, 1, 0, 2,45.00,60.00,Saturday
7,12.5
8,0.0
9,0.0
10,19.07
11,0.0
12,0.0
13,0.0
14,0.0
15,0.0
16,0.0
17,0.0
18,0.0
19,0.0
20,0.0
21,0.0
22,0.0
23,-197.0010706806215
24,16.8742505250413
25,10.440520941786826
26,16.854254299547268
27,10.35919038611856
28,16.854254299547268
29,10.35919038611856
30,16.85914965501782
31,10.440018482300362
32,17.931599023859956
33,17.976711847457672
34,17.063578745318676
35,6.742978158321556
36,14.40087348466767
37,11.584710234245335
38,17.331406377872455
39,0.0
2,1, 7, 1, 0, 3, 0.00,15.00,Saturday
7,12.45
8,0.0
9,0.0
10,19.07
11,0.0
12,0.0
13,0.0
14,0.0
15,0.0
16,0.0
17,0.0
18,0.0
19,0.0
20,0.0
21,0.0
22,0.0
23,-197.4118508530645
24,16.82107100436368
25,10.344903869663355
26,16.80192847168644
27,10.277268888066903
28,16.80192847168644
29,10.277268888066903
30,16.805974166716915
31,10.344394382177844
32,17.88602685509917
33,17.931599023859956
34,17.010175333817205
35,6.551080008502431
36,14.34661450932515
37,11.524051221020386
38,17.28338403173621
39,0.0
2,1, 7, 1, 0, 3,15.00,30.00,Saturday
7,12.4
8,0.0
9,0.0
10,19.07
11,0.0
12,0.0
13,0.0
14,0.0
15,0.0
16,0.0
17,0.0
18,0.0
19,0.0
20,0.0
21,0.0
22,0.0
23,-197.78628056906712
24,16.768076051573825
25,10.24740325329032
26,16.74981134901804
27,10.194181448653197
28,16.74981134901804
29,10.194181448653197
30,16.752975755471276
31,10.246883071069291
32,17.84018400038842
33,17.88602685509917
34,16.956960058635033
35,6.353619573969077
36,14.290800077690847
37,11.461825381832227
38,17.23439721262451
39,0.0
2,1, 7, 1, 0, 3,30.00,45.00,Saturday
7,12.350000000000001
8,0.0
9,0.0
10,19.07
11,0.0
12,0.0
13,0.0
14,0.0
15,0.0
16,0.0
17,0.0
18,0.0
19,0.0
20,0.0
21,0.0
22,0.0
23,-198.16114664207475
24,16.714169141191597
25,10.147639598570073
26,16.696831239492063
27,10.109566079314257
28,16.696831239492063
29,10.109566079314257
30,16.6990691183389
31,10.147107648211012
32,17.79399461006892
33,17.84018400038842
34,16.90279402800283
35,6.148073227275853
36,14.23465094108775
37,11.399158091852314
38,17.18428562619319
39,0.0
2,1, 7, 1, 0, 3,45.00,60.00,Saturday
7,12.3
8,0.0
9,0.0
10,19.07
11,0.0
12,0.0
13,0.0
14,0.0
15,0.0
16,0.0
17,0.0
18,0.0
19,0.0
20,0.0
21,0.0
22,0.0
23,-198.5246085833948
24,16.65935069301697
25,10.04553086229898
26,16.642986657509976
27,10.023365915445552
28,16.642986657509976
29,10.023365915445552
30,16.644251893443986
31,10.04498672211032
32,17.747420480227486
33,17.79399461006892
34,16.847667396773826
35,5.933860130439852
36,14.177800631063121
37,11.335907329194868
38,17.1332899217452
39,0.0
2,1, 7, 1, 0, 4, 0.00,15.00,Saturday
7,12.275000000000002
8,0.0
9,0.0
10,19.07
11,0.0
12,0.0
13,0.0
14,0.0
15,0.0
16,0.0
17,0.0
18,0.0
19,0.0
20,0.0
21,0.0
22,0.0
23,-194.14495087319048
24,16.63320280791193
25,10.152078006739016
26,16.61663196369065
27,10.124617034249015
28,16.61663196369065
29,10.124617034249015
30,16.61829533133246
31,10.151522482127014
32,17.702719404292825
33,17.747420480227486
34,16.82155514520128
35,6.276083428412698
36,14.188357392411774
37,11.406394416300316
38,17.08658569922898
39,0.0
2,1, 7, 1, 0, 4,15.00,30.00,Saturday
7,12.25
8,0.0
9,0.0
10,19.07
11,0.0
12,0.0
13,0.0
14,0.0
15,0.0
16,0.0
17,0.0
18,0.0
19,0.0
20,0.0
21,0.0
22,0.0
23,-190.1713505254506
24,16.605258803315007
25,10.25385291441546
26,16.588676274350032
27,10.222043560762563
28,16.588676274350032
29,10.222043560762563
30,16.590604231167834
31,10.253308937162597
32,17.658625541987046
33,17.702719404292825
34,16.79371417874215
35,6.600967671428759
36,14.207339801082867
37,11.482535425394076
38,17.046511258938498
39,0.0
2,1, 7, 1, 0, 4,30.00,45.00,Saturday
7,12.224999999999998
8,7.5
9,6.5
10,19.07
11,0.0
12,0.0
13,24.92085313058223
14,0.0
15,4.073093485299696
16,9.396308110315235
17,9.137349041523901
18,4.073093485299696
19,7.540058642658336
20,0.0
21,4.073093485299696
22,24.92085313058223
23,-158.9344117899112
24,16.62359378489245
25,10.605146311399945
26,16.631961496594972
27,10.90949821006608
28,16.63091100540351
29,10.893225304449663
30,16.612219443584422
31,10.605117462846279
32,17.619557012841927
33,17.658625541987046
34,16.81177817729376
35,7.359554236048268
36,14.265563829592907
37,11.596789246613184
38,17.019644655550852
39,0.0
2,1, 7, 1, 0, 4,45.00,60.00,Saturday
7,12.2
8,15.0
9,13.0
10,19.07
11,0.0
12,0.0
13,48.9097634592902
14,0.0
15,7.993869145238597
16,23.346886110278952
17,21.10197596976399
18,7.993869145238597
19,15.43385979314413
20,0.0
21,7.993869145238597
22,48.9097634592902
23,-129.4464832839247
24,16.648067507506035
25,10.937593651603132
26,16.698954817502138
27,11.861051425974726
28,16.689936499837877
29,11.721737522372008
30,16.639788915083436
31,10.937647362790344
32,17.584135724498832
33,17.619557012841927
34,16.83706952378882
35,8.113290932236403
36,14.34006221729112
37,11.716923974084693
38,17.00876376517719
39,0.0
2,1, 7, 1, 0, 5, 0.00,15.00,Saturday
7,12.249999999999998
8,22.5
9,19.5
10,19.07
11,0.0
12,0.0
13,73.32769528132457
14,0.0
15,11.984764581589843
16,37.584733266535174
17,31.59048688998805
18,11.984764581589843
19,23.70567110412001
20,0.0
21,11.984764581589843
22,73.32769528132457
23,-98.93301985268388
24,16.68338899591537
25,11.303611514901162
26,16.777235768537953
27,12.849014138347554
28,16.753603529659316
29,12.484189246990125
30,16.678368404754583
31,11.303798870652816
32,17.552543418873988
33,17.584135724498832
34,16.870705093148146
35,8.833952859449843
36,14.434297826011175
37,11.864721775530256
38,17.011309026057717
39,0.0
2,1, 7, 1, 0, 5,15.00,30.00,Saturday
7,12.3
8,30.0
9,26.0
10,19.07
11,0.0
12,0.0
13,98.13570843937234
14,0.0
15,16.039415369338087
16,50.99035277766082
17,40.00261460338221
18,16.039415369338087
19,32.3765921117107
20,0.0
21,16.039415369338087
22,98.13570843937234
23,-68.24050246628676
24,16.726206176074783
25,11.672199179765578
26,16.860378520912924
27,13.783241063449692
28,16.81627605076668
29,13.107529091463496
30,16.7245160363916
31,11.672526906270317
32,17.52498700220271
33,17.552543418873988
34,16.9120999952108
35,9.574818578467687
36,14.534993406176795
37,12.016330747775555
38,17.022981847136354
39,0.0
2,1, 7, 1, 0, 5,30.00,45.00,Saturday
7,12.350000000000001
8,36.5
9,37.25
10,19.07
11,0.0
12,0.0
13,125.73645454829006
14,0.0
15,20.55051370841076
16,79.03822254246585
17,56.324333819958674
18,20.55051370841076
19,41.04381001205796
20,0.0
21,20.55051370841076
22,125.73645454829006
23,-34.6607017794938
24,16.791628555323594
25,12.066776775176038
26,17.028310195876816
27,15.637955224181992
28,16.93495922381072
29,14.23861452672379
30,16.793580818039697
31,12.06730526372467
32,17.503587823650818
33,17.52498700220271
34,16.97658773912559
35,10.311595264395192
36,14.644431696250194
37,12.174263719990108
38,17.044149076470276
39,0.0
2,1, 7, 1, 0, 5,45.00,60.00,Saturday
7,12.4
8,43.0
9,48.5
10,19.07
11,0.0
12,0.0
13,149.37378946242592
14,0.0
15,24.41382746994749
16,93.26879303584128
17,61.785959480590535
18,24.41382746994749
19,50.44090046856965
20,0.0
21,24.41382746994749
22,149.37378946242592
23,-5.903727537596295
24,16.844042750081293
25,12.419705162972303
26,17.13359888525218
27,16.615692023306107
28,16.99826133565901
29,14.691449529521265
30,16.849322502344577
31,12.420297382513489
32,17.485006189807873
33,17.503587823650818
34,17.030257983732195
35,11.085940717546526
36,14.760691338583229
37,12.331887155083166
38,17.070183773691717
39,0.0
2,1, 7, 1, 0, 6, 0.00,15.00,Saturday
7,12.55
8,49.5
9,59.75
10,19.07
11,0.0
12,0.0
13,173.29108926611477
14,0.0
15,28.3228990216279
16,108.26917523546852
17,66.53948404946544
18,28.3228990216279
19,60.58901539354677
20,0.0
21,28.3228990216279
22,173.29108926611477
23,24.977236578863483
24,16.912511066176744
25,12.84797087831228
26,17.254802785114
27,17.755217696555718
28,17.077987279277473
29,15.201819694559171
30,16.921233360559885
31,12.848714943563698
32,17.47116523113145
33,17.485006189807873
34,17.097083686578507
35,11.918803490706317
36,14.896586580432427
37,12.534984579807087
38,17.0992422758881
39,0.0
2,1, 7, 1, 0, 6,15.00,30.00,Saturday
7,12.7
8,56.0
9,71.0
10,19.07
11,0.0
12,0.0
13,197.4711252486413
14,0.0
15,32.27491248275133
16,123.72569147156779
17,70.37781676240238
18,32.27491248275133
19,71.50302639537884
20,0.0
21,32.27491248275133
22,197.4711252486413
23,55.97640396870354
24,16.98720431606354
25,13.286130506238857
26,17.37853345816672
27,18.927916578549848
28,17.162140197550876
29,15.660089977902178
30,16.999522075525814
31,13.28710869202223
32,17.46186151344044
33,17.47116523113145
34,17.17467303923478
35,12.811653818451987
36,15.039113635596209
37,12.74315037368865
38,17.13095869003759
39,0.0
2,1, 7, 1, 0, 6,30.00,45.00,Saturday
7,12.85
8,72.75
9,74.0
10,19.07
11,0.0
12,0.0
13,250.9097581031296
14,0.0
15,41.00898535748093
16,144.94597453543736
17,78.21581870349905
18,41.00898535748093
19,91.36596844176617
20,0.0
21,41.00898535748093
22,250.9097581031296
23,119.01768647378688
24,17.118853891074163
25,14.039288770213105
26,17.563071716639417
27,20.472337099656205
28,17.303838598589675
29,16.37863573101294
30,17.13889620281229
31,14.041421086854339
32,17.46148088077108
33,17.46186151344044
34,17.30574384222672
35,14.211543458735289
36,15.232668792265372
37,13.000689295592963
38,17.171105983881628
39,0.0
2,1, 7, 1, 0, 6,45.00,60.00,Saturday
7,13.0
8,89.5
9,77.0
10,19.07
11,0.0
12,0.0
13,302.8487091371647
14,0.0
15,49.497948475297186
16,165.30091487142758
17,84.40129609693162
18,49.497948475297186
19,111.45208057515694
20,0.0
21,49.497948475297186
22,302.8487091371647
23,179.8092693004651
24,17.256701464906197
25,14.795714465176406
26,17.73883802046728
27,21.952047416705707
28,17.429524513776965
29,16.98706954153463
30,17.286224041567284
31,14.79968352456583
32,17.46713192465185
33,17.46148088077108
34,17.43853420472059
35,15.758126608076653
36,15.444924725060048
37,13.268048933947057
38,17.225108547989773
39,0.0
2,1, 7, 1, 0, 7, 0.00,15.00,Saturday
7,13.175
8,106.25
9,80.0
10,19.07
11,0.0
12,0.0
13,354.3472851524747
14,0.0
15,57.91493618318428
16,184.14797468442563
17,89.01946368884371
18,57.91493618318428
19,131.75266954316092
20,0.0
21,57.91493618318428
22,354.3472851524747
23,233.9963706355257
24,17.350672341112272
25,15.257422758096562
26,17.853301786648327
27,22.83047747130738
28,17.504852560794852
29,17.17680229955222
30,17.38354901805357
31,15.258408811286298
32,17.474903285211326
33,17.46713192465185
34,17.526176034789984
35,16.571802678723653
36,15.570961409388758
37,13.363362487365407
38,17.28759250261298
39,0.0
2,1, 7, 1, 0, 7,15.00,30.00,Saturday
7,13.35
8,123.0
9,83.0
10,19.07
11,0.0
12,0.0
13,405.0569385425677
14,0.0
15,66.20298145124642
16,201.83431701865308
17,92.31189005057314
18,66.20298145124642
19,152.2572601800301
20,0.0
21,66.20298145124642
22,405.0569385425677
23,261.1057879515396
24,16.92029873977882
25,12.625705641533195
26,16.996116425338556
27,12.72561102044304
28,16.977597877914498
29,12.644899586195242
30,16.96715135139179
31,12.625777492362706
32,17.44607698600355
33,17.474903285211326
34,17.173141862376344
35,12.635690163218547
36,15.265686828970388
37,12.625987080737445
38,17.286862081464136
39,0.0
2,1, 7, 1, 0, 7,30.00,45.00,Saturday
7,13.524999999999999
8,137.75
9,104.5
10,19.07
11,0.0
12,0.0
13,454.1745598489082
14,0.0
15,74.23082312696994
16,233.60904720948744
17,96.41725517745103
18,74.23082312696994
19,178.09628085872026
20,0.0
21,74.23082312696994
22,454.1745598489082
23,320.6956245822478
24,16.963630597679963
25,12.70597722253024
26,17.014305317980412
27,12.824874801422105
28,17.008335546818774
29,12.72253109396889
30,17.00766499844854
31,12.705994228271733
32,17.438114273157264
33,17.44607698600355
34,17.202413563956053
35,12.72691758875343
36,15.222581811946952
37,12.663850556893294
38,17.248922837999878
39,0.0
2,1, 7, 1, 0, 7,45.00,60.00,Saturday
7,13.7
8,152.5
9,126.0
10,19.07
11,0.0
12,0.0
13,503.47462038452846
14,0.0
15,82.2884828844561
16,264.19729512173177
17,97.9499913507075
18,82.2884828844561
19,205.3462432280486
20,0.0
21,82.2884828844561
22,503.47462038452846
23,374.6807242753573
24,16.96765456001946
25,12.784206638107593
26,17.027788001380802
27,12.919975309061083
28,17.01979808403724
29,12.79592665429885
30,17.019050337142954
31,12.784241478199249
32,17.431318626581135
33,17.438114273157264
34,17.21559348378902
35,12.81645755567738
36,15.294160489862804
37,12.728082534719363
38,17.2117807648376
39,0.0
2,1, 7, 1, 0, 8, 0.00,15.00,Saturday
7,13.924999999999999
8,167.25
9,147.5
10,19.07
11,0.0
12,0.0
13,552.917482629957
14,0.0
15,90.36948232099988
16,293.36164276137356
17,97.00898877930379
18,90.36948232099988
19,233.9689485514026
20,0.0
21,90.36948232099988
22,552.917482629957
23,429.2042056993563
24,16.97725675391078
25,12.86265042337627
26,17.045549848767788
27,13.014150770359777
28,17.036028470215506
29,12.867640944050061
30,17.035723871600194
31,12.862688594717852
32,17.42530807269112
33,17.431318626581135
34,17.235718667445052
35,12.910850199877256
36,15.365342464229911
37,12.798710818799236
38,17.189237613696836
39,0.0
2,1, 7, 1, 0, 8,15.00,30.00,Saturday
7,14.149999999999999
8,182.0
9,169.0
10,19.07
11,0.0
12,0.0
13,612.444550940379
14,1.0
15,103.23328541649211
16,320.8562620206178
17,98.46579298090658
18,98.46579298090658
19,263.91422104421696
20,1.0
21,103.23328541649211
22,612.444550940379
23,494.06169727256633
24,16.994910160991832
25,12.941836890375106
26,17.07257483242294
27,13.104259660004827
28,17.061660168978225
29,12.93832340451277
30,17.061669379834285
31,12.938324554498895
32,17.42145165192594
33,17.42530807269112
34,17.264589208803482
35,13.003357468920981
36,15.449197479358247
37,12.869020872198917
38,17.18193714405844
39,0.0
2,1, 7, 1, 0, 8,30.00,45.00,Saturday
7,14.375
8,184.75
9,193.75
10,19.07
11,0.0
12,0.0
13,661.817665334425
14,1.0
15,119.90422913320683
16,337.22109863908963
17,101.80668303494176
18,101.80668303494176
19,284.79844289193994
20,1.0
21,119.90422913320683
22,661.817665334425
23,548.7516780144813
24,17.01430824089719
25,13.020991346046259
26,17.098597930032287
27,13.183182249808294
28,17.086925768963397
29,13.007531393665802
30,17.08692552379512
31,13.007531373529348
32,17.419323227815166
33,17.42145165192594
34,17.290337059350264
35,13.086222587978714
36,15.542458255082352
37,12.937473028221007
38,17.185144302682133
39,0.0
2,1, 7, 1, 0, 8,45.00,60.00,Saturday
7,14.6
8,187.5
9,218.5
10,19.07
11,0.0
12,0.0
13,740.1260241943639
14,1.0
15,141.4288666280017
16,377.4568618979455
17,104.85679458678791
18,104.85679458678791
19,307.0707993930026
20,1.0
21,141.4288666280017
22,740.1260241943639
23,634.1377553968578
24,17.0469445335319
25,13.100845727040506
26,17.14153712202931
27,13.27701145873507
28,17.127801927875343
29,13.073611277517116
30,17.12780193242331
31,13.073611278062488
32,17.421141275674625
33,17.419323227815166
34,17.33187428504121
35,13.167222853256137
36,15.668640173260997
37,13.004014934212194
38,17.195700053545977
39,0.0
2,1, 7, 1, 0, 9, 0.00,15.00,Saturday
7,14.875
8,190.25
9,243.25
10,19.07
11,0.0
12,0.0
13,828.0494896930827
14,1.0
15,162.60058143940043
16,390.12476378657067
17,107.82684095368329
18,107.82684095368329
19,330.6379824757172
20,1.0
21,162.60058143940043
22,828.0494896930827
23,731.1977657201837
24,17.08967305407478
25,13.225764549966302
26,17.19213367726882
27,13.395583908952737
28,17.17760241596705
29,13.184952946426725
30,17.177602415932267
31,13.184952946416184
32,17.427121773643233
33,17.421141275674625
34,17.379223915327835
35,13.296246724129771
36,15.837881087452615
37,13.120889392551135
38,17.212656306260694
39,0.0
2,1, 7, 1, 0, 9,15.00,30.00,Saturday
7,15.149999999999999
8,193.0
9,268.0
10,19.07
11,0.0
12,0.0
13,932.1031729257775
14,1.0
15,185.3888206776821
16,400.57826478584246
17,110.84879889350542
18,110.84879889350542
19,355.39470035350377
20,1.0
21,185.3888206776821
22,932.1031729257775
23,844.4146237780574
24,17.138743769820447
25,13.34836242561197
26,17.24994353534093
27,13.50899100633834
28,17.234339833425775
29,13.292812859194614
30,17.234339833425313
31,13.292812859194699
32,17.437566641594938
33,17.427121773643233
34,17.43263051303214
35,13.422626232532549
36,16.015915066233447
37,13.22993242093321
38,17.23552605688205
39,0.0
2,1, 7, 1, 0, 9,30.00,45.00,Saturday
7,15.424999999999999
8,209.5
9,282.5
10,19.07
11,0.0
12,0.0
13,1093.057727762303
14,1.0
15,214.4572536460737
16,412.5018909401585
17,119.14490102297877
18,119.14490102297877
19,388.4803666902476
20,1.0
21,214.4572536460737
22,1093.057727762303
23,1016.2306301145277
24,17.21240842661059
25,13.472094828425147
26,17.3392465840113
27,13.619961256547999
28,17.326290257344816
29,13.40112263671852
30,17.3262902573445
31,13.401122636718519
32,17.455759984368317
33,17.437566641594938
34,17.5178877960554
35,13.551682239981552
36,16.231464819350208
37,13.335443693484422
38,17.26524652688456
39,0.0
2,1, 7, 1, 0, 9,45.00,60.00,Saturday
7,15.7
8,226.0
9,297.0
10,19.07
11,0.0
12,0.0
13,1269.3454971629046
14,1.0
15,244.4185266421803
16,421.43849226061354
17,127.28879814987786
18,127.28879814987786
19,421.97297794160943
20,1.0
21,244.4185266421803
22,1269.3454971629046
23,1202.5403678862685
24,17.290205256283286
25,13.592861973981135
26,17.4252463717906
27,13.725004986634346
28,17.4109354944907
29,13.50553828034951
30,17.410935494490733
31,13.50553828034951
32,17.479976321987923
33,17.455759984368317
34,17.605349272569377
35,13.677383872841895
36,16.455148499027928
37,13.422942652241545
38,17.304939126007447
39,0.0
2,1, 7, 1, 0,10, 0.00,15.00,Saturday
7,15.899999999999999
8,242.5
9,311.5
10,19.07
11,0.0
12,0.0
13,1468.0884143337005
14,1.0
15,275.08139574392726
16,427.2525544841644
17,135.27750781489917
18,135.27750781489917
19,455.77981251378276
20,1.0
21,275.08139574392726
22,1468.0884143337005
23,1411.4963309686868
24,17.379551915556704
25,13.694857690745067
26,17.520831228531467
27,13.808445121275177
28,17.50692197288401
29,13.590605862647825
30,17.50692197288395
31,13.590605862647825
32,17.511510718307644
33,17.479976321987923
34,17.70298190357905
35,13.783337520509843
36,16.689145361246517
37,13.506694012291291
38,17.35543062267562
39,0.0
2,1, 7, 1, 0,10,15.00,30.00,Saturday
7,16.1
8,259.0
9,326.0
10,19.07
11,0.0
12,0.0
13,1668.1668045244137
14,1.0
15,306.24594506101926
16,429.82025903094296
17,143.10888038141152
18,143.10888038141152
19,489.80362868655743
20,1.0
21,306.24594506101926
22,1668.1668045244137
23,1621.2886975187475
24,17.47294475344473
25,13.79543183623005
26,17.621855777350337
27,13.887691870097461
28,17.60835223163014
29,13.673780504585288
30,17.608352231630153
31,13.673780504585288
32,17.549677843435145
33,17.511510718307644
34,17.806741550977712
35,13.887682206462701
36,16.926094247324897
37,13.588096988652637
38,17.416274385486197
39,0.0
2,1, 7, 1, 0,10,30.00,45.00,Saturday
7,16.3
8,274.25
9,314.25
10,19.07
11,0.0
12,0.0
13,1811.0621529482205
14,1.0
15,324.9947146986094
16,411.28831643048915
17,148.37499429788377
18,148.37499429788377
19,503.54015097763244
20,1.0
21,324.9947146986094
22,1811.0621529482205
23,1928.0518449530612
24,20.48056947947055
25,37.255813154686685
26,20.851828084506508
27,42.57079271166317
28,19.71357837556661
29,24.932061248190422
30,19.72409870258196
31,25.09306289562061
32,17.768164865500435
33,17.549677843435145
34,20.012196943398727
35,44.861499684804286
36,19.729450907967134
37,18.721283927823947
38,17.690549656154385
39,0.0
2,1, 7, 1, 0,10,45.00,60.00,Saturday
7,16.5
8,289.5
9,302.5
10,19.07
11,0.0
12,0.0
13,1942.9190344034605
14,1.0
15,342.14375821631523
16,391.8484401696728
17,153.3992955159993
18,153.3992955159993
19,516.2423068909575
20,1.0
21,342.14375821631523
22,1942.9190344034605
23,2046.6920195848213
24,19.76882608962908
25,35.34490482211325
26,20.030778551155393
27,37.738757382766345
28,19.360551921885857
29,24.758633384213148
30,19.359492842108107
31,24.75095028862152
32,17.854276977824497
33,17.768164865500435
34,19.645823390458766
35,40.9465379760237
36,20.72274378411123
37,19.359014890761046
38,18.302548090922024
39,0.0
2,1, 7, 1, 0,11, 0.00,15.00,Saturday
7,16.55
8,304.75
9,290.75
10,19.07
11,0.0
12,0.0
13,2070.475371398817
14,1.0
15,357.6997961759
16,371.6167029241445
17,158.19827822071392
18,158.19827822071392
19,527.946527184029
20,1.0
21,357.6997961759
22,2070.475371398817
23,2176.5840563311895
24,20.176508211003707
25,34.78681739769019
26,20.38283122180734
27,35.896253345977435
28,19.76369759931497
29,24.53649442611843
30,19.749003130902462
31,24.292963805821078
32,17.98257940807815
33,17.854276977824497
34,19.982487119398918
35,39.80058404953911
36,20.805573810591852
37,19.346760388615735
38,18.825430923797022
39,0.0
2,1, 7, 1, 0,11,15.00,30.00,Saturday
7,16.6
8,320.0
9,279.0
10,19.07
11,0.0
12,0.0
13,2177.9226780041577
14,1.0
15,371.67536761237284
16,350.70752701875153
17,162.79134712259065
18,162.79134712259065
19,538.6954286837699
20,1.0
21,371.67536761237284
22,2177.9226780041577
23,2098.5624179811844
24,18.32956004956802
25,13.914703530549703
26,18.50446915278415
27,13.899121033717165
28,18.481017155255
29,13.759943862206866
30,18.480561880169027
31,13.759967695664432
32,17.986364172685022
33,17.98257940807815
34,18.644121302179936
35,13.993439405037781
36,18.11933820182128
37,13.719153077297506
38,18.901294446827208
39,0.0
2,1, 7, 1, 0,11,30.00,45.00,Saturday
7,16.65
8,297.5
9,288.5
10,19.07
11,0.0
12,0.0
13,2186.841340124674
14,1.0
15,371.0964811275552
16,316.46218741304335
17,155.01894845702472
18,155.01894845702472
19,527.7466894000138
20,1.0
21,371.0964811275552
22,2186.841340124674
23,2126.738779881072
24,18.30450391381584
25,13.876530796250105
26,18.463419717537302
27,13.835811021651073
28,18.45692096303149
29,13.715390239163444
30,18.456944030640596
31,13.71539105553406
32,18.043505296817905
33,17.986364172685022
34,18.644498967793826
35,13.950631940075615
36,17.77795380877967
37,13.671626316459083
38,18.756470898399037
39,0.0
2,1, 7, 1, 0,11,45.00,60.00,Saturday
7,16.7
8,275.0
9,298.0
10,19.07
11,0.0
12,0.0
13,2185.723374456111
14,1.0
15,369.087846348569
16,282.05584134620824
17,147.06271120936455
18,147.06271120936455
19,516.4633024010603
20,1.0
21,369.087846348569
22,2185.723374456111
23,2125.3242395813254
24,18.27064955677635
25,13.835081271002375
26,18.422308298625605
27,13.770196890690842
28,18.41609155190358
29,13.66948116862275
30,18.41609041103287
31,13.669481123648449
32,18.0983585854361
33,18.043505296817905
34,18.608896048427063
35,13.901828760984563
36,17.738843888475344
37,13.629569782326882
38,18.59509302038147
39,0.0
2,1, 7, 1, 0,12, 0.00,15.00,Saturday
7,16.625
8,252.5
9,307.5
10,19.07
11,0.0
12,0.0
13,2292.262135694651
14,1.0
15,383.9516037004389
16,254.80627061170176
17,136.1750610314084
18,136.1750610314084
19,504.77134863459116
20,1.0
21,383.9516037004389
22,2292.262135694651
23,2231.6995698617375
24,18.24861187678164
25,13.636370530153787
26,18.406708974633442
27,13.540090408978937
28,18.40109291419967
29,13.451582107913984
30,18.401092960530974
31,13.451582110392469
32,18.15265657376598
33,18.0983585854361
34,18.615859574431223
35,13.684328214643662
36,17.696355369237153
37,13.435157993919177
38,18.48694187515873
39,0.0
2,1, 7, 1, 0,12,15.00,30.00,Saturday
7,16.549999999999997
8,230.0
9,317.0
10,19.07
11,0.0
12,0.0
13,2273.8357383047687
14,1.0
15,379.62561948705235
16,217.90408918886195
17,128.08950630956485
18,128.08950630956485
19,492.59775091047317
20,1.0
21,379.62561948705235
22,2273.8357383047687
23,2205.5947161995327
24,18.211194706498134