Program Version,EnergyPlus, Version 23.2.0-7636e6b3e9, YMD=2026.07.21 21:27
1,5,Environment Title[],Latitude[deg],Longitude[deg],Time Zone[],Elevation[m]
2,8,Day of Simulation[],Month[],Day of Month[],DST Indicator[1=yes 0=no],Hour[],StartMinute[],EndMinute[],DayType
3,5,Cumulative Day of Simulation[],Month[],Day of Month[],DST Indicator[1=yes 0=no],DayType  ! When Daily Report Variables Requested
4,2,Cumulative Days of Simulation[],Month[]  ! When Monthly Report Variables Requested
5,1,Cumulative Days of Simulation[] ! When Run Period Report Variables Requested
6,1,Calendar Year of Simulation[] ! When Annual Report Variables Requested
7,1,Environment,Site Outdoor Air Drybulb Temperature [C] !TimeStep
8,1,Environment,Site Diffuse Solar Radiation Rate per Area [W/m2] !TimeStep
9,1,Environment,Site Direct Solar Radiation Rate per Area [W/m2] !TimeStep
10,1,Environment,Site Ground Temperature [C] !TimeStep
11,1,ZONE ONE,Zone Total Internal Radiant Heating Rate [W] !TimeStep
12,1,ZONE ONE,Zone Total Internal Convective Heating Rate [W] !TimeStep
13,1,ZONE ONE,Zone Windows Total Transmitted Solar Radiation Rate [W] !TimeStep
14,1,ZN001:WALL001,Surface Outside Face Sunlit Fraction [] !TimeStep
15,1,ZN001:WALL001,Surface Outside Face Incident Solar Radiation Rate per Area [W/m2] !TimeStep
16,1,ZN001:WALL002,Surface Outside Face Incident Solar Radiation Rate per Area [W/m2] !TimeStep
17,1,ZN001:WALL003,Surface Outside Face Incident Solar Radiation Rate per Area [W/m2] !TimeStep
18,1,ZN001:WALL004,Surface Outside Face Incident Solar Radiation Rate per Area [W/m2] !TimeStep
19,1,ZN001:ROOF001,Surface Outside Face Incident Solar Radiation Rate per Area [W/m2] !TimeStep
20,1,ZN001:WALL001:WIN001,Surface Outside Face Sunlit Fraction [] !TimeStep
21,1,ZN001:WALL001:WIN001,Surface Outside Face Incident Solar Radiation Rate per Area [W/m2] !TimeStep
22,1,ZN001:WALL001:WIN001,Surface Window Transmitted Solar Radiation Rate [W] !TimeStep
23,1,ZN001:WALL001:WIN001,Surface Window Net Heat Transfer Rate [W] !TimeStep
24,1,ZN001:WALL001,Surface Inside Face Temperature [C] !TimeStep
25,1,ZN001:WALL001,Surface Outside Face Temperature [C] !TimeStep
26,1,ZN001:WALL002,Surface Inside Face Temperature [C] !TimeStep
27,1,ZN001:WALL002,Surface Outside Face Temperature [C] !TimeStep
28,1,ZN001:WALL003,Surface Inside Face Temperature [C] !TimeStep
29,1,ZN001:WALL003,Surface Outside Face Temperature [C] !TimeStep
30,1,ZN001:WALL004,Surface Inside Face Temperature [C] !TimeStep
31,1,ZN001:WALL004,Surface Outside Face Temperature [C] !TimeStep
32,1,ZN001:FLR001,Surface Inside Face Temperature [C] !TimeStep
33,1,ZN001:FLR001,Surface Outside Face Temperature [C] !TimeStep
34,1,ZN001:ROOF001,Surface Inside Face Temperature [C] !TimeStep
35,1,ZN001:ROOF001,Surface Outside Face Temperature [C] !TimeStep
36,1,ZN001:WALL001:WIN001,Surface Inside Face Temperature [C] !TimeStep
37,1,ZN001:WALL001:WIN001,Surface Outside Face Temperature [C] !TimeStep
38,1,ZONE ONE,Zone Mean Air Temperature [C] !TimeStep
39,1,ZONE ONE,Zone Air Heat Balance Outdoor Air Transfer Rate [W] !TimeStep
End of Data Dictionary
1,RUN PERIOD 1,  55.95,  -3.37,   0.00,  41.10
2,1, 1, 1, 0, 1, 0.00,15.00,Sunday
7,2.125
8,0.0
9,0.0
10,18.89
11,0.0
12,0.0
13,0.0
14,0.0
15,0.0
16,0.0
17,0.0
18,0.0
19,0.0
20,0.0
21,0.0
22,0.0
23,-108.82274224841439
24,5.163905525845776
25,1.9109222641844568
26,5.154200011473974
27,1.910917795259878
28,5.15420001147397
29,1.9109177952598764
30,5.154200011473939
31,1.9109177952598764
32,5.74957854669084
33,5.7700845129911915
34,5.317301053062788
35,1.8760279435962544
36,3.5949238623556994
37,1.9085116100368964
38,5.409337586275091
39,0.0
2,1, 1, 1, 0, 1,15.00,30.00,Sunday
7,2.25
8,0.0
9,0.0
10,18.89
11,0.0
12,0.0
13,0.0
14,0.0
15,0.0
16,0.0
17,0.0
18,0.0
19,0.0
20,0.0
21,0.0
22,0.0
23,-105.0762356659073
24,5.160739066432216
25,2.0149788471687313
26,5.151319292235006
27,2.0149744798246156
28,5.151319292235044
29,2.0149744798246156
30,5.151319292235034
31,2.0149744798246156
32,5.729672580555183
33,5.74957854669084
34,5.309305746410455
35,1.972252807065347
36,3.642152506876471
37,2.01413801198845
38,5.3970756023153355
39,0.0
2,1, 1, 1, 0, 1,30.00,45.00,Sunday
7,2.375
8,0.0
9,0.0
10,18.89
11,0.0
12,0.0
13,0.0
14,0.0
15,0.0
16,0.0
17,0.0
18,0.0
19,0.0
20,0.0
21,0.0
22,0.0
23,-126.08337862392045
24,4.794075177828119
25,0.06960327083003659
26,4.785611592464329
27,0.0693973471012766
28,4.765100855183564
29,-0.21005868923034315
30,4.765100855183585
31,-0.21005868923034263
32,5.683511624506005
33,5.729672580555183
34,4.877019593113542
35,-5.326894953309508
36,3.309746344010591
37,1.3713722819211966
38,5.3378377972196205
39,0.0
2,1, 1, 1, 0, 1,45.00,60.00,Sunday
7,2.5
8,0.0
9,0.0
10,18.89
11,0.0
12,0.0
13,0.0
14,0.0
15,0.0
16,0.0
17,0.0
18,0.0
19,0.0
20,0.0
21,0.0
22,0.0
23,-138.8329504589952
24,4.64102603959667
25,-1.0757082686138153
26,4.630929318093576
27,-1.0762584526733239
28,4.635572880310542
29,-1.0315086165954384
30,4.635572880310539
31,-1.0315086165954388
32,5.641838447472298
33,5.683511624506005
34,4.711603813489769
35,-9.25849489746429
36,2.906464155745425
37,0.7714007034935548
38,5.214154207732845
39,0.0
2,1, 1, 1, 0, 2, 0.00,15.00,Sunday
7,2.45
8,0.0
9,0.0
10,18.89
11,0.0
12,0.0
13,0.0
14,0.0
15,0.0
16,0.0
17,0.0
18,0.0
19,0.0
20,0.0
21,0.0
22,0.0
23,-130.53250405976857
24,4.645321181136671
25,-0.6158072176363362
26,4.635245877987492
27,-0.6164150619279438
28,4.625146307441704
29,-0.7562605017319965
30,4.625146307441705
31,-0.7562605017319964
32,5.606184252563358
33,5.641838447472298
34,4.718537745129247
35,-7.878439979215611
36,2.918534765140123
37,0.9073530968591967
38,5.0936166370450415
39,0.0
2,1, 1, 1, 0, 2,15.00,30.00,Sunday
7,2.4
8,0.0
9,0.0
10,18.89
11,0.0
12,0.0
13,0.0
14,0.0
15,0.0
16,0.0
17,0.0
18,0.0
19,0.0
20,0.0
21,0.0
22,0.0
23,-125.23118773704286
24,4.611045388432178
25,-0.347306659298102
26,4.601258974696187
27,-0.3479037566790807
28,4.587662078987971
29,-0.5473133707350786
30,4.587662078987972
31,-0.5473133707350788
32,5.568343329056223
33,5.606184252563358
34,4.689985831386206
35,-6.8913304296138325
36,2.9514088542041463
37,1.0192044361039052
38,5.011954005110092
39,0.0
2,1, 1, 1, 0, 2,30.00,45.00,Sunday
7,2.3499999999999996
8,0.0
9,0.0
10,18.89
11,0.0
12,0.0
13,0.0
14,0.0
15,0.0
16,0.0
17,0.0
18,0.0
19,0.0
20,0.0
21,0.0
22,0.0
23,-120.29899778412789
24,4.601008893844829
25,-0.09114409092928547
26,4.591336664894182
27,-0.09169809950751011
28,4.576969404579489
29,-0.3027654288187506
30,4.57696940457949
31,-0.3027654288187506
32,5.532129538778392
33,5.568343329056223
34,4.688591715640717
35,-5.808262851120518
36,2.9787540628715874
37,1.1216713748384564
38,4.967483391577027
39,0.0
2,1, 1, 1, 0, 2,45.00,60.00,Sunday
7,2.3
8,0.0
9,0.0
10,18.89
11,0.0
12,0.0
13,0.0
14,0.0
15,0.0
16,0.0
17,0.0
18,0.0
19,0.0
20,0.0
21,0.0
22,0.0
23,-116.2488143375569
24,4.601085366529611
25,0.13086414890576673
26,4.591579066593947
27,0.13034720297448937
28,4.578508286289347
29,-0.0617909872978297
30,4.578508286289348
31,-0.0617909872978297
32,5.49800612409816
33,5.532129538778392
34,4.697656351982519
35,-4.807250590297931
36,3.0167686228028288
37,1.2221597303702083
38,4.945907054830128
39,0.0
2,1, 1, 1, 0, 3, 0.00,15.00,Sunday
7,2.25
8,0.0
9,0.0
10,18.89
11,0.0
12,0.0
13,0.0
14,0.0
15,0.0
16,0.0
17,0.0
18,0.0
19,0.0
20,0.0
21,0.0
22,0.0
23,-114.23180553463177
24,4.591964195318097
25,0.23006346593275903
26,4.58259325886031
27,0.22957630726886447
28,4.570545102256112
29,0.05307941312361292
30,4.570545102256112
31,0.05307941312361292
32,5.464868581323725
33,5.49800612409816
34,4.692876601865254
35,-4.304226092517765
36,3.0357224328381562
37,1.273411744558416
38,4.932488614284421
39,0.0
2,1, 1, 1, 0, 3,15.00,30.00,Sunday
7,2.2
8,0.0
9,0.0
10,18.89
11,0.0
12,0.0
13,0.0
14,0.0
15,0.0
16,0.0
17,0.0
18,0.0
19,0.0
20,0.0
21,0.0
22,0.0
23,-112.23505924842159
24,4.586171149694294
25,0.3248282119319387
26,4.57692170626515
27,0.32436237264466
28,4.566236543855992
29,0.16773208799943798
30,4.566236543855992
31,0.16773208799943798
32,5.433070780915423
33,5.464868581323725
34,4.691531228980417
35,-3.8191005240079003
36,3.0523475234844
37,1.32156077579657
38,4.919675164647062
39,0.0
2,1, 1, 1, 0, 3,30.00,45.00,Sunday
7,2.1500000000000004
8,0.0
9,0.0
10,18.89
11,0.0
12,0.0
13,0.0
14,0.0
15,0.0
16,0.0
17,0.0
18,0.0
19,0.0
20,0.0
21,0.0
22,0.0
23,-111.54461475311867
24,4.569558487638156
25,0.26955064605518075
26,4.570683979000422
27,0.4111234696390954
28,4.571531431991285
29,0.415318721689906
30,4.56138343935034
31,0.2748417465834874
32,5.402376101240283
33,5.433070780915423
34,4.689254029988392
35,-3.370920117996556
36,3.0505176335653914
37,1.3301953358028413
38,4.905720065336006
39,0.0
2,1, 1, 1, 0, 3,45.00,60.00,Sunday
7,2.1
8,0.0
9,0.0
10,18.89
11,0.0
12,0.0
13,0.0
14,0.0
15,0.0
16,0.0
17,0.0
18,0.0
19,0.0
20,0.0
21,0.0
22,0.0
23,-109.53164384473563
24,4.564698860006393
25,0.37529642812660385
26,4.56353320267352
27,0.49071102013296897
28,4.563475405513888
29,0.4905149018566309
30,4.555602477834978
31,0.37454186915597615
32,5.372648513151733
33,5.402376101240283
34,4.685790208905272
35,-2.957151296012283
36,3.0692573083686057
37,1.3813220940455722
38,4.891196457375399
39,0.0
2,1, 1, 1, 0, 4, 0.00,15.00,Sunday
7,2.075
8,0.0
9,0.0
10,18.89
11,0.0
12,0.0
13,0.0
14,0.0
15,0.0
16,0.0
17,0.0
18,0.0
19,0.0
20,0.0
21,0.0
22,0.0
23,-108.32735262332119
24,4.540124382955314
25,0.36112224781058605
26,4.540110467198466
27,0.4880081076417407
28,4.540114507723313
29,0.48802111601561826
30,4.531306893303554
31,0.3606810561541961
32,5.342551183964517
33,5.372648513151733
34,4.660010398232437
35,-2.994081444401049
36,3.075278904294919
37,1.403726226223057
38,4.874107789542246
39,0.0
2,1, 1, 1, 0, 4,15.00,30.00,Sunday
7,2.05
8,0.0
9,0.0
10,18.89
11,0.0
12,0.0
13,0.0
14,0.0
15,0.0
16,0.0
17,0.0
18,0.0
19,0.0
20,0.0
21,0.0
22,0.0
23,-106.86476428128793
24,4.517379506890003
25,0.3521363174683778
26,4.5180308380730905
27,0.48702964538959953
28,4.5180305530739515
29,0.48702870235157136
30,4.508700110881726
31,0.35166827858830085
32,5.312846960822584
33,5.342551183964517
34,4.63597590677082
35,-3.021658284953381
36,3.0750001959544306
37,1.4261989886560968
38,4.853471828842909
39,0.0
2,1, 1, 1, 0, 4,30.00,45.00,Sunday
7,2.025
8,0.0
9,0.0
10,18.89
11,0.0
12,0.0
13,0.0
14,0.0
15,0.0
16,0.0
17,0.0
18,0.0
19,0.0
20,0.0
21,0.0
22,0.0
23,-105.33964538028728
24,4.493468292000154
25,0.3448186529900252
26,4.494703637173157
27,0.4860350988827108
28,4.494703657640168
29,0.4860351694543765
30,4.484945860242483
31,0.3443461086718012
32,5.2833757862571735
33,5.312846960822584
34,4.610783330802029
35,-3.048126773630827
36,3.075869190317974
37,1.4510197049127669
38,4.830037993058852
39,0.0
2,1, 1, 1, 0, 4,45.00,60.00,Sunday
7,2.0
8,0.0
9,0.0
10,18.89
11,0.0
12,0.0
13,0.0
14,0.0
15,0.0
16,0.0
17,0.0
18,0.0
19,0.0
20,0.0
21,0.0
22,0.0
23,-103.72333154389266
24,4.468908354715272
25,0.3400204996843992
26,4.470568097685049
27,0.4852263722173175
28,4.47056809618609
29,0.4852263667851842
30,4.460543247208426
31,0.3395419352388156
32,5.254068406573696
33,5.2833757862571735
34,4.584893648492326
35,-3.0720394877232513
36,3.0767710080292545
37,1.4772962730118024
38,4.804993247639486
39,0.0
2,1, 1, 1, 0, 5, 0.00,15.00,Sunday
7,2.025
8,0.0
9,0.0
10,18.89
11,0.0
12,0.0
13,0.0
14,0.0
15,0.0
16,0.0
17,0.0
18,0.0
19,0.0
20,0.0
21,0.0
22,0.0
23,-103.92059648145184
24,4.440255280317761
25,0.31566310464991926
26,4.44217061825893
27,0.46480107652520153
28,4.442170618370294
29,0.46480107693185085
30,4.43187865713474
31,0.31519669811129464
32,5.2246074031547485
33,5.254068406573696
34,4.553760814306563
35,-3.183993316732488
36,3.0472350401158224
37,1.4497668846882448
38,4.778447869933562
39,0.0
2,1, 1, 1, 0, 5,15.00,30.00,Sunday
7,2.05
8,0.0
9,0.0
10,18.89
11,0.0
12,0.0
13,0.0
14,0.0
15,0.0
16,0.0
17,0.0
18,0.0
19,0.0
20,0.0
21,0.0
22,0.0
23,-103.9179591106202
24,4.409974395537878
25,0.29221311291924296
26,4.4121424083690846
27,0.4449324047168906
28,4.400476856301883
29,0.28407216799815216
30,4.401609471575696
31,0.2917487791025478
32,5.1949553645406015
33,5.2246074031547485
34,4.5209335047022
35,-3.293307282526784
36,3.018166697868139
37,1.4206521245848194
38,4.750063227097962
39,0.0
2,1, 1, 1, 0, 5,30.00,45.00,Sunday
7,2.075
8,0.0
9,0.0
10,18.89
11,0.0
12,0.0
13,0.0
14,0.0
15,0.0
16,0.0
17,0.0
18,0.0
19,0.0
20,0.0
21,0.0
22,0.0
23,-102.66727724514259
24,4.393672774872116
25,0.4307049648931346
26,4.384349268135074
27,0.42495552860666314
28,4.373667690548654
29,0.26871178323650596
30,4.373567216169554
31,0.26818430860279824
32,5.16554066031301
33,5.1949553645406015
34,4.490764120487839
35,-3.4027468158604894
36,3.0052679974710372
37,1.4242079767756195
38,4.720901751656348
39,0.0
2,1, 1, 1, 0, 5,45.00,60.00,Sunday
7,2.1
8,0.0
9,0.0
10,18.89
11,0.0
12,0.0
13,0.0
14,0.0
15,0.0
16,0.0
17,0.0
18,0.0
19,0.0
20,0.0
21,0.0
22,0.0
23,-102.62743054112053
24,4.362902475808895
25,0.4053190286279344
26,4.354625633066669
27,0.4051948879306227
28,4.343590013941101
29,0.2448436300001257
30,4.343598587104829
31,0.2448852403684039
32,5.135964598277171
33,5.16554066031301
34,4.458409052635977
35,-3.5120641701441198
36,2.977632207090892
37,1.399249653928564
38,4.691376312133479
39,0.0
2,1, 1, 1, 0, 6, 0.00,15.00,Sunday
7,2.075
8,0.0
9,0.0
10,18.89
11,0.0
12,0.0
13,0.0
14,0.0
15,0.0
16,0.0
17,0.0
18,0.0
19,0.0
20,0.0
21,0.0
22,0.0
23,-99.43360334593108
24,4.3475073125660595
25,0.3888705639667231
26,4.350442653182941
27,0.5408811068748055
28,4.340524573411684
29,0.3962633917936002
30,4.340523897037065
31,0.3962601365652048
32,5.108149732361324
33,5.135964598277171
34,4.45633270739038
35,-3.0274672024506133
36,2.999074065166269
37,1.4703871790369476
38,4.665493776172289
39,0.0
2,1, 1, 1, 0, 6,15.00,30.00,Sunday
7,2.05
8,0.0
9,0.0
10,18.89
11,0.0
12,0.0
13,0.0
14,0.0
15,0.0
16,0.0
17,0.0
18,0.0
19,0.0
20,0.0
21,0.0
22,0.0
23,-95.34753069596952
24,4.346758001042877
25,0.5411479730545526
26,4.347924294761591
27,0.6722428489576204
28,4.348739979819588
29,0.6767328982043345
30,4.338815011263723
31,0.540180385818999
32,5.0814623683430895
33,5.108149732361324
34,4.455971770846525
35,-2.562220969901989
36,3.0483692008044727
37,1.5832336951336856
38,4.646115848396098
39,0.0
2,1, 1, 1, 0, 6,30.00,45.00,Sunday
7,2.025
8,0.0
9,0.0
10,18.89
11,0.0
12,0.0
13,0.0
14,0.0
15,0.0
16,0.0
17,0.0
18,0.0
19,0.0
20,0.0
21,0.0
22,0.0
23,-91.36206274033887
24,4.3469019034866205
25,0.686328477330112
26,4.347566830729918
27,0.8047205546289334
28,4.347509993394162
29,0.8044880852749604
30,4.339346389285988
31,0.6859012430220046
32,5.05582121642121
33,5.0814623683430895
34,4.4575094488815825
35,-2.0959511507411204
36,3.1005260029135684
37,1.6980615775828483
38,4.632566008733768
39,0.0
2,1, 1, 1, 0, 6,45.00,60.00,Sunday
7,2.0
8,0.0
9,0.0
10,18.89
11,0.0
12,0.0
13,0.0
14,0.0
15,0.0
16,0.0
17,0.0
18,0.0
19,0.0
20,0.0
21,0.0
22,0.0
23,-87.40179715786378
24,4.350791465578642
25,0.8328523249373565
26,4.350802518488189
27,0.9375970385961429
28,4.350806277521365
29,0.9376115684131988
30,4.343504962506954
31,0.8324024596470978
32,5.031497017364987
33,5.05582121642121
34,4.462649526800487
35,-1.629638253097871
36,3.154989031739319
37,1.8150421600794289
38,4.623077214100346
39,0.0
2,1, 1, 1, 0, 7, 0.00,15.00,Sunday
7,1.95
8,0.0
9,0.0
10,18.89
11,0.0
12,0.0
13,0.0
14,0.0
15,0.0
16,0.0
17,0.0
18,0.0
19,0.0
20,0.0
21,0.0
22,0.0
23,-89.18379487546024
24,4.319927625594359
25,0.7437982846769524
26,4.320398503956151
27,0.8546923388054365
28,4.320398234814528
29,0.854691376984942
30,4.312629182081501
31,0.7433953722552454
32,5.005959077686294
33,5.031497017364987
34,4.432465484553878
35,-1.784197625602494
36,3.1201876816000436
37,1.7537749936357159
38,4.611035681280067
39,0.0
2,1, 1, 1, 0, 7,15.00,30.00,Sunday
7,1.9
8,0.0
9,0.0
10,18.89
11,0.0
12,0.0
13,0.0
14,0.0
15,0.0
16,0.0
17,0.0
18,0.0
19,0.0
20,0.0
21,0.0
22,0.0
23,-90.56648852655835
24,4.292145670119966
25,0.663496455962008
26,4.292641477217198
27,0.7766586540085427
28,4.29264149643887
29,0.7766587215823688
30,4.284756722488943
31,0.6630941769407331
32,4.980514424154268
33,5.005959077686294
34,4.405015497600772
35,-1.9258878544050158
36,3.07434851837138
37,1.686577351532378
38,4.592845703523362
39,0.0
2,1, 1, 1, 0, 7,30.00,45.00,Sunday
7,1.85
8,0.0
9,0.0
10,18.89
11,0.0
12,0.0
13,0.0
14,0.0
15,0.0
16,0.0
17,0.0
18,0.0
19,0.0
20,0.0
21,0.0
22,0.0
23,-91.91447807583862
24,4.261769656451089
25,0.5823326385375928
26,4.262348487715732
27,0.6980464391075838
28,4.262348486328902
29,0.6980464342851207
30,4.254300255502849
31,0.5819249676691103
32,4.954894424652229
33,4.980514424154268
34,4.375150944057056
35,-2.068231149111128
36,3.028063585209736
37,1.619136924889176
38,4.569108521659496
39,0.0
2,1, 1, 1, 0, 7,45.00,60.00,Sunday
7,1.8
8,0.0
9,0.0
10,18.89
11,0.0
12,0.0
13,0.0
14,0.0
15,0.0
16,0.0
17,0.0
18,0.0
19,0.0
20,0.0
21,0.0
22,0.0
23,-93.19235062921929
24,4.229300992254882
25,0.5011318603868444
26,4.229961004592741
27,0.619367976076224
28,4.229961004693649
29,0.6193679764247648
30,4.221748635604819
31,0.5007192659042656
32,4.928954400141235
33,4.954894424652229
34,4.343268897471054
35,-2.210656081088479
36,2.9799914070730438
37,1.5507642751507547
38,4.541754746356114
39,0.0
2,1, 1, 1, 0, 8, 0.00,15.00,Sunday
7,1.7750000000000001
8,0.0
9,0.0
10,18.89
11,0.0
12,0.0
13,0.0
14,0.0
15,0.0
16,0.0
17,0.0
18,0.0
19,0.0
20,0.0
21,0.0
22,0.0
23,-90.55493074877441
24,4.219822104129962
25,0.5805478193530332
26,4.219860965471305
27,0.6883664937233026
28,4.219860965464364
29,0.6883664936985096
30,4.212393356718852
31,0.5801131920378289
32,4.904311072735645
33,4.928954400141235
34,4.334375302443688
35,-1.9437721495646418
36,2.992725887243637
37,1.6037861203650436
38,4.515964156876614
39,0.0
2,1, 1, 1, 0, 8,15.00,30.00,Sunday
7,1.75
8,0.0
9,0.0
10,18.89
11,0.0
12,0.0
13,0.0
14,0.0
15,0.0
16,0.0
17,0.0
18,0.0
19,0.0
20,0.0
21,0.0
22,0.0
23,-88.1814492396575
24,4.208459616142759
25,0.6540577521068679
26,4.2081596952489555
27,0.754028449430712
28,4.208159695249438
29,0.7540284494324088
30,4.201203664520681
31,0.6536270608159177
32,4.8800923471393585
33,4.904311072735645
34,4.323934848651309
35,-1.6861267758714364
36,3.0128964544716155
37,1.6609548321283683
38,4.494428705729605
39,0.0
2,1, 1, 1, 0, 8,30.00,45.00,Sunday
7,1.7249999999999999
8,0.0
9,0.0
10,18.89
11,0.0
12,0.0
13,0.0
14,0.0
15,0.0
16,0.0
17,0.0
18,0.0
19,0.0
20,0.0
21,0.0
22,0.0
23,-85.81481423218789
24,4.199169047383448
25,0.7285042159547297
26,4.198481692978899
27,0.8202644161935727
28,4.19848169297887
29,0.8202644161934649
30,4.192083076043542
31,0.7280822993461136
32,4.856477246269653
33,4.8800923471393585
34,4.315487295961852
35,-1.4280129451548809
36,3.0340332378111157
37,1.719232817063812
38,4.47683237779826
39,0.0
2,1, 1, 1, 0, 8,45.00,60.00,Sunday
7,1.7
8,0.0
9,0.0
10,18.89
11,0.0
12,0.0
13,0.0
14,0.0
15,0.0
16,0.0
17,0.0
18,0.0
19,0.0
20,0.0
21,0.0
22,0.0
23,-83.47172092488837
24,4.191711382546804
25,0.8033317751447662
26,4.18424242989695
27,0.7996695301697471
28,4.190625698524964
29,0.8867158537924099
30,4.1910923210588535
31,0.8888232583452845
32,4.833565792580073
33,4.856477246269653
34,4.308835509035408
35,-1.1698278187860658
36,3.0571774632981032
37,1.7792568515816356
38,4.461934306796086
39,0.0
2,1, 1, 1, 0, 9, 0.00,15.00,Sunday
7,1.775
8,0.0
9,0.0
10,18.89
11,0.0
12,0.0
13,0.0
14,0.0
15,0.0
16,0.0
17,0.0
18,0.0
19,0.0
20,0.0
21,0.0
22,0.0
23,-82.04187273483454
24,4.167603095033137
25,0.7871205275616147
26,4.160967620200381
27,0.7869460797862863
28,4.167702622342588
29,0.8832069512904668
30,4.167668468422049
31,0.8830697118205909
32,4.809952142590917
33,4.833565792580073
34,4.278105034234096
35,-1.43269837452981
36,3.068053950738033
37,1.813753989540146
38,4.446008134802586
39,0.0
2,1, 1, 1, 0, 9,15.00,30.00,Sunday
7,1.85
8,0.0
9,0.0
10,18.89
11,0.0
12,0.0
13,0.0
14,0.0
15,0.0
16,0.0
17,0.0
18,0.0
19,0.0
20,0.0
21,0.0
22,0.0
23,-80.30630807859882
24,4.151204381023187
25,0.8692117479926251
26,4.137404496499167
27,0.7699321180997565
28,4.136547112456343
29,0.7630830290784475
30,4.143986670110419
31,0.864467315248527
32,4.78627254670554
33,4.809952142590917
34,4.247193928367128
35,-1.727832424583665
36,3.074432464770439
37,1.8421962345972815
38,4.426691708843438
39,0.0
2,1, 1, 1, 0, 9,30.00,45.00,Sunday
7,1.925
8,0.0
9,0.0
10,18.89
11,0.0
12,0.0
13,0.0
14,0.0
15,0.0
16,0.0
17,0.0
18,0.0
19,0.0
20,0.0
21,0.0
22,0.0
23,-78.80748311645085
24,4.123890067081869
25,0.8255401880006584
26,4.11328893746884
27,0.7621038721379619
28,4.113386897438108
29,0.7628277775063512
30,4.117590607090281
31,0.8255245228592838
32,4.762447127879053
33,4.78627254670554
34,4.215355254975648
35,-2.0147292296955537
36,3.0752853208314264
37,1.867669245669049
38,4.404032019563569
39,0.0
2,1, 1, 1, 0, 9,45.00,60.00,Sunday
7,2.0
8,12.0
9,51.0
10,18.89
11,0.0
12,0.0
13,381.3907513035339
14,1.0
15,58.80744601651078
16,57.61273020565314
17,6.888246138319445
18,6.888246138319445
19,12.653083841561035
20,1.0
21,58.80744601651078
22,381.3907513035339
23,347.68775794281515
24,4.934807900022885
25,8.333551437185237
26,4.9332798647286955
27,8.162265033163742
28,4.461207235850158
29,1.6836246946619857
30,4.461044971496818
31,1.680854002648385
32,4.786066772352798
33,4.762447127879053
34,4.5602082365281476
35,-0.3751997815569019
36,3.8794159956213434
37,2.8157522163440944
38,4.448501480578878
39,0.0
2,1, 1, 1, 0,10, 0.00,15.00,Sunday
7,2.1
8,18.0
9,76.5
10,18.89
11,0.0
12,0.0
13,609.997355900861
14,1.0
15,93.31993281061793
16,82.96482640055929
17,10.492357779267724
18,10.492357779267724
19,20.885051160080916
20,1.0
21,93.31993281061793
22,609.997355900861
23,594.5052105056104
24,5.220689518811485
25,10.679718646200085
26,5.169911406139423
27,9.616547059313337
28,4.658200708113954
29,2.0450602383495418
30,4.658267801705033
31,2.0452667359340024
32,4.8096684871125674
33,4.786066772352798
34,4.7545659786012076
35,0.17525298824257052
36,4.4139271188807925
37,3.267393832330413
38,4.543307480176096
39,0.0
2,1, 1, 1, 0,10,15.00,30.00,Sunday
7,2.2
8,24.0
9,102.0
10,18.89
11,0.0
12,0.0
13,860.1297191578956
14,1.0
15,130.87120762233172
16,105.34267748227231
17,14.19919360129886
18,14.19919360129886
19,30.229939285772808
20,1.0
21,130.87120762233172
22,860.1297191578956
23,860.9548545663691
24,5.596568444827522
25,14.017642830051642
26,5.472854484350469
27,11.635915296946877
28,4.855962830480965
29,2.4323900415345174
30,4.855954825499443
31,2.432373001608091
32,4.84641981863521
33,4.8096684871125674
34,4.962651478250247
35,0.9474915726765236
36,4.947120733082329
37,3.7518922869797393
38,4.671963374378049
39,0.0
2,1, 1, 1, 0,10,30.00,45.00,Sunday
7,2.3
8,31.0
9,101.75
10,18.89
11,0.0
12,0.0
13,999.7948596711815
14,1.0
15,152.67218283029484
16,111.50665873338959
17,18.259192253426516
18,18.259192253426516
19,39.424875712649666
20,1.0
21,152.67218283029484
22,999.7948596711815
23,1008.6617543709655
24,5.7952163489214445
25,15.416647301943073
26,5.61317103499391
27,11.837845602830312
28,5.026255903652391
29,2.8896879611715414
30,5.026257043614747
31,2.8896945614006313
32,4.884898457245808
33,4.84641981863521
34,5.12878680514972
35,1.7026348685141688
36,5.2663356699669635
37,4.006838104715371
38,4.814482987588579
39,0.0
2,1, 1, 1, 0,10,45.00,60.00,Sunday
7,2.4
8,38.0
9,101.5
10,18.89
11,0.0
12,0.0
13,1090.0796550045966
14,1.0
15,166.54918303653832
16,110.58656942477752
17,22.246199349470483
18,22.246199349470483
19,48.43276336366743
20,1.0
21,166.54918303653832
22,1090.0796550045966
23,1102.6169853942074
24,5.972103222807233
25,16.424042371082923
26,5.724016891503993
27,11.667761442843007
28,5.1731967583145915
29,3.2651131869733216
30,5.173196582914789
31,3.2651119560028308
32,4.927243336477171
33,4.884898457245808
34,5.273171278715507
35,2.454556660256852
36,5.470556084696
37,4.15308192737109
38,4.955128143381008
39,0.0
2,1, 1, 1, 0,11, 0.00,15.00,Sunday
7,2.5749999999999997
8,45.0
9,101.25
10,18.89
11,0.0
12,0.0
13,1161.1445700029994
14,1.0
15,177.26525552237155
16,107.04596329872275
17,26.15460612084213
18,26.15460612084213
19,57.2462387915899
20,1.0
21,177.26525552237155
22,1161.1445700029994
23,1179.1223958702112
24,6.152307000085661
25,17.337338429977017
26,5.839547360268545
27,11.445858780547509
28,5.340988248415309
29,3.809011456253588
30,5.340988279205114
31,3.809011688688309
32,4.975227660311463
33,4.927243336477171
34,5.437152997438349
35,3.6416889667949484
36,5.693393600239347
37,4.373799576756994
38,5.094426315983232
39,0.0
2,1, 1, 1, 0,11,15.00,30.00,Sunday
7,2.75
8,52.0
9,101.0
10,18.89
11,0.0
12,0.0
13,1116.547045672655
14,1.0
15,169.3482916544039
16,93.85732287188962
17,28.873186599288747
18,28.873186599288747
19,65.85881189400394
20,1.0
21,169.3482916544039
22,1116.547045672655
23,1127.68120338358
24,6.147429984731663
25,16.528016748001345
26,5.801688713444646
27,10.250799421947065
28,5.4005904268635
29,4.153707818888129
30,5.40059042238666
31,4.153707781534734
32,5.016472378482125
33,4.975227660311463
34,5.484492448968767
35,4.3466783483027776
36,5.6829224377803484
37,4.331905988171059
38,5.21540606644141
39,0.0
2,1, 1, 1, 0,11,30.00,45.00,Sunday
7,2.9250000000000003
8,53.5
9,108.5
10,18.89
11,0.0
12,0.0
13,1287.6780243343262
14,1.0
15,195.7478723545148
16,95.76272570486769
17,31.174799934305206
18,31.174799934305206
19,69.93911200815167
20,1.0
21,195.7478723545148
22,1287.6780243343262
23,1315.4027462955933
24,6.493350253350326
25,19.271441532970353
26,6.0145128226356555
27,10.747719127933296
28,5.6006840015516435
29,4.489942675469806
30,5.600684002389647
31,4.489942681516833
32,5.07616671558146
33,5.016472378482125
34,5.677107828101788
35,4.6352772381197145
36,6.070545695122519
37,4.759373120249336
38,5.333728880615119
39,0.0
2,1, 1, 1, 0,11,45.00,60.00,Sunday
7,3.1
8,55.0
9,116.0
10,18.89
11,0.0
12,0.0
13,1350.0445209644795
14,1.0
15,204.39708128365996
16,88.27187894986301
17,32.315817037728536
18,32.315817037728536
19,73.99837183536746
20,1.0
21,204.39708128365996
22,1350.0445209644795
23,1380.7457065943406
24,6.573179920588822
25,19.58051328417461
26,6.032648027901514
27,9.988111299741687
28,5.682569305987662
29,4.661617132815862
30,5.682569305869495
31,4.661617131892031
32,5.132259103499249
33,5.07616671558146
34,5.757649928109193
35,4.9750367036977465
36,6.27055259830604
37,4.934976269266031
38,5.449700538244865
39,0.0
2,1, 1, 1, 0,12, 0.00,15.00,Sunday
7,3.25
8,56.5
9,123.5
10,18.89
11,0.0
12,0.0
13,1418.454888762988
14,1.0
15,213.80251814780434
16,80.28973664065799
17,33.41224565686142
18,33.41224565686142
19,77.98442749594224
20,1.0
21,213.80251814780434
22,1418.454888762988
23,1459.2499812714811
24,6.762442918402598
25,20.66110953745542
26,6.127542969141559
27,9.587798755138843
28,5.834422061761661
29,5.115241806066903
30,5.834422061781765
31,5.11524180622241
32,5.1956554053609345
33,5.132259103499249
34,5.9084173484890865
35,6.06676855027541
36,6.53613978494343
37,5.284624943074846
38,5.564792416768913
39,0.0
2,1, 1, 1, 0,12,15.00,30.00,Sunday
7,3.4000000000000004
8,58.0
9,131.0
10,18.89
11,0.0
12,0.0
13,1487.8268556298008
14,1.0
15,223.66300787727099
16,71.56860315141648
17,34.46719428045142
18,34.46719428045142
19,81.84470756047514
20,1.0
21,223.66300787727099
22,1487.8268556298008
23,1537.9548746909757
24,6.925165090347279
25,21.60422608316965
26,6.199219599544284
27,9.042685263556269
28,5.969069997771249
29,5.516669020343459
30,5.969069997768018
31,5.516669020318042
32,5.262620361330755
33,5.1956554053609345
34,6.04201161486798
35,6.948352782369175
36,6.8188679398620025
37,5.635271141010321
38,5.681027647512606
39,0.0
2,1, 1, 1, 0,12,30.00,45.00,Sunday
7,3.5500000000000003
8,56.5
9,152.25
10,18.89
11,0.0
12,0.0
13,1621.7750106936778
14,1.0
15,242.0661655758605
16,62.002983192762585
17,34.236064437805126
18,34.236064437805126
19,85.1104609098136
20,1.0
21,242.0661655758605
22,1621.7750106936778
23,1686.391395117049
24,7.157109774900945
25,23.32378983535393
26,6.28032401772641
27,8.416762273032099
28,6.108124442100314
29,5.767881029250622
30,6.108124442100804
31,5.767881029254549
32,5.338914704884941
33,5.262620361330755
34,6.188401231757025
35,7.775055582672346
36,7.188011266770559
37,6.079198800425445
38,5.801613546598885
39,0.0
2,1, 1, 1, 0,12,45.00,60.00,Sunday
7,3.7
8,55.0
9,173.5
10,18.89
11,0.0
12,0.0
13,1757.748612410991
14,1.0
15,260.84647305411664
16,50.257591999540836
17,33.960579293005594
18,33.960579293005594
19,88.2475695711419
20,1.0
21,260.84647305411664
22,1757.748612410991
23,1836.7815668724031
24,7.371691546587384
25,24.868836630948028
26,6.344551217246707
27,7.545577541570486
28,6.248763121535238
29,6.03382677713401
30,6.248763121535155
31,6.033826777133403
32,5.421190850163049
33,5.338914704884941
34,6.334193140609077
35,8.575597638731331
36,7.559492838117649
37,6.519106886204668
38,5.927647266057641
39,0.0
2,1, 1, 1, 0,13, 0.00,15.00,Sunday
7,3.7250000000000005
8,53.5
9,194.75
10,18.89
11,0.0
12,0.0
13,2063.622184992711
14,1.0
15,307.68520268589174
16,37.84598666352153
17,35.081041521896935
18,35.081041521896935
19,91.11358307850938
20,1.0
21,307.68520268589174
22,2063.622184992711
23,2169.6320887030884
24,7.786522183879884
25,28.583708212163046
26,6.472935328040325
27,6.325555555167486
28,6.470073380451056
29,6.183646128366976
30,6.4700733804510415
31,6.183646128367085
32,5.519561619604946
33,5.421190850163049
34,6.56579021506745
35,8.797926807264727
36,8.156948588549994
37,7.127221994540605
38,6.072808284506223
39,0.0
2,1, 1, 1, 0,13,15.00,30.00,Sunday
7,3.75
8,52.0
9,216.0
10,18.89
11,0.0
12,0.0
13,2196.8325385298176
14,1.0
15,326.2826048912915
16,34.662115062676094
17,34.662115062676094
18,49.595366666766154
19,93.56673682634855
20,1.0
21,326.2826048912915
22,2196.8325385298176
23,2309.9446283243883
24,7.945086220870636
25,29.285277964390993
26,6.598036737821039
27,6.134587004122182
28,6.599358242102781
29,6.150528634367878
30,6.723028292715791
31,7.903003778474083
32,5.618584337747576
33,5.519561619604946
34,6.710074007329113
35,9.061327628613443
36,8.44901739800855
37,7.3698307135152845
38,6.231940809956515
39,0.0
2,1, 1, 1, 0,13,30.00,45.00,Sunday
7,3.7749999999999995
8,49.5
9,243.5
10,18.89
11,0.0