Program Version,EnergyPlus, Version 23.2.0-7636e6b3e9, YMD=2026.07.24 09:08
1,5,Environment Title[],Latitude[deg],Longitude[deg],Time Zone[],Elevation[m]
2,8,Day of Simulation[],Month[],Day of Month[],DST Indicator[1=yes 0=no],Hour[],StartMinute[],EndMinute[],DayType
3,5,Cumulative Day of Simulation[],Month[],Day of Month[],DST Indicator[1=yes 0=no],DayType  ! When Daily Report Variables Requested
4,2,Cumulative Days of Simulation[],Month[]  ! When Monthly Report Variables Requested
5,1,Cumulative Days of Simulation[] ! When Run Period Report Variables Requested
6,1,Calendar Year of Simulation[] ! When Annual Report Variables Requested
7,1,Environment,Site Outdoor Air Drybulb Temperature [C] !TimeStep
8,1,Environment,Site Sky Temperature [C] !TimeStep
9,1,Environment,Site Diffuse Solar Radiation Rate per Area [W/m2] !TimeStep
10,1,Environment,Site Direct Solar Radiation Rate per Area [W/m2] !TimeStep
11,1,Environment,Site Ground Temperature [C] !TimeStep
12,1,ZONE ONE,Zone Total Internal Radiant Heating Rate [W] !TimeStep
13,1,ZONE ONE,Zone Total Internal Convective Heating Rate [W] !TimeStep
14,1,ZONE ONE,Zone Windows Total Transmitted Solar Radiation Rate [W] !TimeStep
15,1,ZN001:WALL001,Surface Outside Face Sunlit Fraction [] !TimeStep
16,1,ZN001:WALL001,Surface Outside Face Incident Solar Radiation Rate per Area [W/m2] !TimeStep
17,1,ZN001:WALL002,Surface Outside Face Incident Solar Radiation Rate per Area [W/m2] !TimeStep
18,1,ZN001:WALL003,Surface Outside Face Incident Solar Radiation Rate per Area [W/m2] !TimeStep
19,1,ZN001:WALL004,Surface Outside Face Incident Solar Radiation Rate per Area [W/m2] !TimeStep
20,1,ZN001:ROOF001,Surface Outside Face Incident Solar Radiation Rate per Area [W/m2] !TimeStep
21,1,ZN001:WALL001:WIN001,Surface Outside Face Sunlit Fraction [] !TimeStep
22,1,ZN001:WALL001:WIN001,Surface Outside Face Incident Solar Radiation Rate per Area [W/m2] !TimeStep
23,1,ZN001:WALL001:WIN001,Surface Window Transmitted Solar Radiation Rate [W] !TimeStep
24,1,ZN001:WALL001:WIN001,Surface Window Net Heat Transfer Rate [W] !TimeStep
25,1,ZN001:WALL001,Surface Inside Face Temperature [C] !TimeStep
26,1,ZN001:WALL001,Surface Outside Face Temperature [C] !TimeStep
27,1,ZN001:WALL001,Surface Outside Face Outdoor Air Drybulb Temperature [C] !TimeStep
28,1,ZN001:WALL001,Surface Outside Face Convection Heat Transfer Coefficient [W/m2-K] !TimeStep
29,1,ZN001:WALL001,Surface Outside Face Net Thermal Radiation Heat Gain Rate [W] !TimeStep
30,1,ZN001:WALL001,Surface Outside Face Thermal Radiation to Sky Heat Transfer Coefficient [W/m2-K] !TimeStep
31,1,ZN001:WALL001,Surface Outside Face Thermal Radiation to Ground Heat Transfer Coefficient [W/m2-K] !TimeStep
32,1,ZN001:WALL001,Surface Outside Face Thermal Radiation to Air Heat Transfer Rate [W] !TimeStep
33,1,ZN001:WALL001,Surface Outside Face Solar Radiation Heat Gain Rate [W] !TimeStep
34,1,ZN001:WALL002,Surface Inside Face Temperature [C] !TimeStep
35,1,ZN001:WALL002,Surface Outside Face Temperature [C] !TimeStep
36,1,ZN001:WALL002,Surface Outside Face Outdoor Air Drybulb Temperature [C] !TimeStep
37,1,ZN001:WALL002,Surface Outside Face Convection Heat Transfer Coefficient [W/m2-K] !TimeStep
38,1,ZN001:WALL002,Surface Outside Face Net Thermal Radiation Heat Gain Rate [W] !TimeStep
39,1,ZN001:WALL002,Surface Outside Face Thermal Radiation to Sky Heat Transfer Coefficient [W/m2-K] !TimeStep
40,1,ZN001:WALL002,Surface Outside Face Thermal Radiation to Ground Heat Transfer Coefficient [W/m2-K] !TimeStep
41,1,ZN001:WALL002,Surface Outside Face Thermal Radiation to Air Heat Transfer Rate [W] !TimeStep
42,1,ZN001:WALL002,Surface Outside Face Solar Radiation Heat Gain Rate [W] !TimeStep
43,1,ZN001:WALL003,Surface Inside Face Temperature [C] !TimeStep
44,1,ZN001:WALL003,Surface Outside Face Temperature [C] !TimeStep
45,1,ZN001:WALL003,Surface Outside Face Outdoor Air Drybulb Temperature [C] !TimeStep
46,1,ZN001:WALL003,Surface Outside Face Convection Heat Transfer Coefficient [W/m2-K] !TimeStep
47,1,ZN001:WALL003,Surface Outside Face Net Thermal Radiation Heat Gain Rate [W] !TimeStep
48,1,ZN001:WALL003,Surface Outside Face Thermal Radiation to Sky Heat Transfer Coefficient [W/m2-K] !TimeStep
49,1,ZN001:WALL003,Surface Outside Face Thermal Radiation to Ground Heat Transfer Coefficient [W/m2-K] !TimeStep
50,1,ZN001:WALL003,Surface Outside Face Thermal Radiation to Air Heat Transfer Rate [W] !TimeStep
51,1,ZN001:WALL003,Surface Outside Face Solar Radiation Heat Gain Rate [W] !TimeStep
52,1,ZN001:WALL004,Surface Inside Face Temperature [C] !TimeStep
53,1,ZN001:WALL004,Surface Outside Face Temperature [C] !TimeStep
54,1,ZN001:WALL004,Surface Outside Face Outdoor Air Drybulb Temperature [C] !TimeStep
55,1,ZN001:WALL004,Surface Outside Face Convection Heat Transfer Coefficient [W/m2-K] !TimeStep
56,1,ZN001:WALL004,Surface Outside Face Net Thermal Radiation Heat Gain Rate [W] !TimeStep
57,1,ZN001:WALL004,Surface Outside Face Thermal Radiation to Sky Heat Transfer Coefficient [W/m2-K] !TimeStep
58,1,ZN001:WALL004,Surface Outside Face Thermal Radiation to Ground Heat Transfer Coefficient [W/m2-K] !TimeStep
59,1,ZN001:WALL004,Surface Outside Face Thermal Radiation to Air Heat Transfer Rate [W] !TimeStep
60,1,ZN001:WALL004,Surface Outside Face Solar Radiation Heat Gain Rate [W] !TimeStep
61,1,ZN001:FLR001,Surface Inside Face Temperature [C] !TimeStep
62,1,ZN001:FLR001,Surface Outside Face Temperature [C] !TimeStep
63,1,ZN001:ROOF001,Surface Inside Face Temperature [C] !TimeStep
64,1,ZN001:ROOF001,Surface Outside Face Temperature [C] !TimeStep
65,1,ZN001:ROOF001,Surface Outside Face Outdoor Air Drybulb Temperature [C] !TimeStep
66,1,ZN001:ROOF001,Surface Outside Face Convection Heat Transfer Coefficient [W/m2-K] !TimeStep
67,1,ZN001:ROOF001,Surface Outside Face Net Thermal Radiation Heat Gain Rate [W] !TimeStep
68,1,ZN001:ROOF001,Surface Outside Face Thermal Radiation to Sky Heat Transfer Coefficient [W/m2-K] !TimeStep
69,1,ZN001:ROOF001,Surface Outside Face Thermal Radiation to Ground Heat Transfer Coefficient [W/m2-K] !TimeStep
70,1,ZN001:ROOF001,Surface Outside Face Thermal Radiation to Air Heat Transfer Rate [W] !TimeStep
71,1,ZN001:ROOF001,Surface Outside Face Solar Radiation Heat Gain Rate [W] !TimeStep
72,1,ZN001:WALL001:WIN001,Surface Inside Face Temperature [C] !TimeStep
73,1,ZN001:WALL001:WIN001,Surface Outside Face Temperature [C] !TimeStep
74,1,ZN001:WALL001:WIN001,Surface Outside Face Outdoor Air Drybulb Temperature [C] !TimeStep
75,1,ZN001:WALL001:WIN001,Surface Outside Face Convection Heat Transfer Coefficient [W/m2-K] !TimeStep
76,1,ZN001:WALL001:WIN001,Surface Outside Face Net Thermal Radiation Heat Gain Rate [W] !TimeStep
77,1,ZN001:WALL001:WIN001,Surface Outside Face Thermal Radiation to Sky Heat Transfer Coefficient [W/m2-K] !TimeStep
78,1,ZN001:WALL001:WIN001,Surface Outside Face Thermal Radiation to Ground Heat Transfer Coefficient [W/m2-K] !TimeStep
79,1,ZN001:WALL001:WIN001,Surface Outside Face Thermal Radiation to Air Heat Transfer Rate [W] !TimeStep
80,1,ZONE ONE,Zone Mean Air Temperature [C] !TimeStep
81,1,ZONE ONE,Zone Air Heat Balance Internal Convective Heat Gain Rate [W] !TimeStep
82,1,ZONE ONE,Zone Air Heat Balance Surface Convection Rate [W] !TimeStep
83,1,ZONE ONE,Zone Air Heat Balance Interzone Air Transfer Rate [W] !TimeStep
84,1,ZONE ONE,Zone Air Heat Balance Outdoor Air Transfer Rate [W] !TimeStep
85,1,ZONE ONE,Zone Air Heat Balance System Air Transfer Rate [W] !TimeStep
86,1,ZONE ONE,Zone Air Heat Balance Air Energy Storage Rate [W] !TimeStep
End of Data Dictionary
1,RUN PERIOD 1,  55.95,  -3.37,   0.00,  41.10
2,1,10, 1, 0, 1, 0.00,15.00,Sunday
7,11.325
8,-11.065747629531984
9,0.0
10,0.0
11,19.21
12,0.0
13,0.0
14,0.0
15,0.0
16,0.0
17,0.0
18,0.0
19,0.0
20,0.0
21,0.0
22,0.0
23,0.0
24,-302.52648752734666
25,18.963464605493215
26,8.53813765874843
27,11.319891003043212
28,5.609540416550661
29,-1186.1100414002385
30,1.453548426243126
31,2.317008302491669
32,-111.12219592645123
33,0.0
34,18.946568525968512
35,8.610163065357195
36,11.319891003043212
37,5.8892494875817185
38,-1426.3824413031787
39,1.4535899757845006
40,2.3170702739252
41,-128.13429984831163
42,0.0
43,18.946602238707467
44,8.610302825663423
45,11.319891003043212
46,5.889302850960186
47,-1426.377150930021
48,1.4535416654294222
49,2.3169982186856948
50,-128.12370657494066
51,0.0
52,18.94208217248888
53,8.537255009361548
54,11.319891003043212
55,5.609553419522966
56,-1403.7318699081648
57,1.4535416654294222
58,2.3169982186856948
59,-131.57779493417317
60,0.0
61,20.58129275546112
62,20.653000342669717
63,19.266640211033838
64,3.0158677400423888
65,11.305032019075771
66,6.436203854638221
67,-13079.511541901746
68,3.9991630743030764
69,0.0
70,0.0
71,0.0
72,15.345548082477194
73,11.024843428536883
74,11.325
75,3.484362485295191
76,-289.0476487376232
77,1.3745876593957393
78,2.189356482299483
79,1.884899758804173
80,19.671126303616745
81,0.0
82,-110.70684705183126
83,0.0
84,0.0
85,0.0
86,-107.98487964643606
2,1,10, 1, 0, 1,15.00,30.00,Sunday
7,11.45
8,-11.433930583453161
9,0.0
10,0.0
11,19.21
12,0.0
13,0.0
14,0.0
15,0.0
16,0.0
17,0.0
18,0.0
19,0.0
20,0.0
21,0.0
22,0.0
23,0.0
24,-299.9726488342043
25,18.86928515988907
26,8.335812622030568
27,11.444891003043212
28,4.740725275376152
29,-1137.826082588659
30,1.4493819571611857
31,2.3166193468594747
32,-124.17694070180995
33,0.0
34,18.85717244404299
35,8.484202222902786
36,11.444891003043212
37,5.225377959959687
38,-1393.39509019087
39,1.449971968884467
40,2.3175004068628544
41,-140.0274185431122
42,0.0
43,18.857169832079393
44,8.484194053497099
45,11.444891003043212
46,5.225374020744393
47,-1393.3936918003578
48,1.4499731139627092
49,2.317502116789411
50,-140.0279082367182
51,0.0
52,18.848213220620302
53,8.33487472379602
54,11.444891003043212
55,4.740763080111087
56,-1346.5605397011457
57,1.4493747280325182
58,2.3166085515927795
59,-147.03334010589046
60,0.0
61,20.508269558972152
62,20.58129275546112
63,19.16128682649552
64,2.0384734816942967
65,11.430032019075771
66,5.367375818377779
67,-12432.595970387629
68,3.973258183922618
69,0.0
70,0.0
71,0.0
72,15.296547721612114
73,11.010932862458844
74,11.45
75,2.987834322059322
76,-289.3419315036732
77,1.371881017732022
78,2.1907900298794996
79,2.7588365791260725
80,19.590390855085502
81,0.0
82,-119.50768511262086
83,0.0
84,0.0
85,0.0
86,-115.07457801529901
2,1,10, 1, 0, 1,30.00,45.00,Sunday
7,11.575
8,-11.80367401104263
9,0.0
10,0.0
11,19.21
12,0.0
13,0.0
14,0.0
15,0.0
16,0.0
17,0.0
18,0.0
19,0.0
20,0.0
21,0.0
22,0.0
23,0.0
24,-297.7479641096587
25,18.76456302758707
26,8.08641955562158
27,11.569891003043212
28,3.9172193402804343
29,-1077.024362631362
30,1.4448462591902933
31,2.315685019716126
32,-139.07412863850558
33,0.0
34,18.757382692975455
35,8.313710722891988
36,11.569891003043212
37,4.535022563395171
38,-1346.3514763630735
39,1.446059777059796
40,2.317499346576972
41,-154.00278252614987
42,0.0
43,18.757382901403428
44,8.313711413098881
45,11.569891003043212
46,4.535022975423707
47,-1346.351625667159
48,1.4460597102268842
49,2.3174992466565145
50,-154.00274324252035
51,0.0
52,18.74382711193743
53,8.085426553042513
54,11.569891003043212
55,3.9172878274354748
56,-1274.572078118963
57,1.44483859193059
58,2.315673556277066
59,-164.66977035741735
60,0.0
61,20.433253915051683
62,20.508269558972152
63,19.042935314917194
64,0.8141489561069568
65,11.555032019075771
66,4.323238463608248
67,-11556.055324835992
68,3.9432585038138566
69,0.0
70,0.0
71,0.0
72,15.23791460800112
73,10.982346357650727
74,11.575
75,2.5016646672742864
76,-289.0036388074312
77,1.3690678038634574
78,2.1920748838244872
79,3.72577867388898
80,19.50305544055707
81,0.0
82,-129.96396061224584
83,0.0
84,0.0
85,0.0
86,-124.51607078197402
2,1,10, 1, 0, 1,45.00,60.00,Sunday
7,11.7
8,-12.174993432191059
9,0.0
10,0.0
11,19.21
12,0.0
13,0.0
14,0.0
15,0.0
16,0.0
17,0.0
18,0.0
19,0.0
20,0.0
21,0.0
22,0.0
23,0.0
24,-295.80227607158093
25,18.650776250792788
26,7.799833641322314
27,11.694891003043212
28,3.175990874764767
29,-1006.3556884311711
30,1.4399241345738618
31,2.3141776485408756
32,-155.40506119645292
33,0.0
34,18.64725257994606
35,8.086035944724653
36,11.694891003043212
37,3.819877249393488
38,-1281.3303443221034
39,1.4417793471310134
40,2.3169547589828947
41,-170.6426155865279
42,0.0
43,18.647252562207488
44,8.086035875146626
45,11.694891003043212
46,3.8198771962617566
47,-1281.3303280212801
48,1.4417793527677976
49,2.3169547674205684
50,-170.64261949791515
51,0.0
52,18.630358339220876
53,7.798787438755201
54,11.694891003043212
55,3.176095710382003
56,-1190.9048061897522
57,1.4399160339343962
58,2.3141655222712543
59,-184.0032174396734
60,0.0
61,20.35593021882724
62,20.433253915051683
63,18.91162309627803
64,-0.6897903980319975
65,11.680032019075771
66,3.3400303508704274
67,-10424.38275956506
68,3.9078846700307315
69,0.0
70,0.0
71,0.0
72,15.167771465596502
73,10.937800392013855
74,11.7
75,2.0420416208124306
76,-287.97843426224193
77,1.3661348713293102
78,2.19319092919892
79,4.793683744913231
80,19.4080195229546
81,0.0
82,-141.5041042293102
83,0.0
84,0.0
85,0.0
86,-135.535841557047
2,1,10, 1, 0, 2, 0.00,15.00,Sunday
7,11.849999999999998
8,-12.237034327235847
9,0.0
10,0.0
11,19.21
12,0.0
13,0.0
14,0.0
15,0.0
16,0.0
17,0.0
18,0.0
19,0.0
20,0.0
21,0.0
22,0.0
23,0.0
24,-290.95670315026734
25,18.587066598820314
26,7.887833558909263
27,11.84489100304321
28,3.133505357041696
29,-1005.3136802075763
30,1.4371067775309263
31,2.31252710535801
32,-157.7661374717972
33,0.0
34,18.583198569766854
35,8.169752247263448
36,11.84489100304321
37,3.756059361728478
38,-1279.1205910494664
39,1.4394395584801656
40,2.3160210116514213
41,-173.7067685832608
42,0.0
43,18.583198571257242
44,8.169752253793044
45,11.84489100304321
46,3.756059367246006
47,-1279.1205925414517
48,1.4394395579126507
49,2.316021010801461
50,-173.70676821088807
51,0.0
52,18.566741397184686
53,7.886766509608587
54,11.84489100304321
55,3.1336158624255854
56,-1189.6649199814347
57,1.4370982561170458
58,2.3125143421548446
59,-186.79893259092412
60,0.0
61,20.280863545170305
62,20.35593021882724
63,18.84037631993126
64,-0.7434040697573574
65,11.83003201907577
66,3.255201407854263
67,-10339.43401003655
68,3.873197204028763
69,0.0
70,0.0
71,0.0
72,15.12960036465438
73,10.968396670101129
74,11.849999999999998
75,2.0407052418706804
76,-285.83006139070096
77,1.3653383331938957
78,2.1944127470782675
79,5.54993181072018
80,19.316400194478224
81,0.0
82,-122.94237905011626
83,0.0
84,0.0
85,0.0
86,-130.7045160376588
2,1,10, 1, 0, 2,15.00,30.00,Sunday
7,12.0
8,-12.299119510850744
9,0.0
10,0.0
11,19.21
12,0.0
13,0.0
14,0.0
15,0.0
16,0.0
17,0.0
18,0.0
19,0.0
20,0.0
21,0.0
22,0.0
23,0.0
24,-286.72990248710573
25,18.514520199026077
26,7.948426046148768
27,11.994891003043213
28,3.0545377530833964
29,-999.336177940551
30,1.4373422990120799
31,2.3154493836857157
32,-161.53464499094787
33,0.0
34,18.51133135261294
35,8.235721798577583
36,11.994891003043213
37,3.6683487961710073
38,-1273.7460392516687
39,1.4396407871569386
40,2.3188936119497923
41,-177.8988759382007
42,0.0
43,18.5113313524839
44,8.235721797973683
45,11.994891003043213
46,3.668348795631087
47,-1273.7460391141044
48,1.4396407872102124
49,2.3188936120296106
50,-177.89887597290303
51,0.0
52,18.494471673106844
53,7.947366174216938
54,11.994891003043213
55,3.054654286269148
56,-1182.5910822303752
57,1.4373336053554147
58,2.315436356134136
59,-191.25943796968863
60,0.0
61,20.20529889993205
62,20.280863545170305
63,18.759261289723156
64,-0.9034648756531902
65,11.980032019075772
66,3.1443690723597095
67,-10244.636619573854
68,3.8706806885579232
69,0.0
70,0.0
71,0.0
72,15.107868625186484
73,11.0064781749943
74,12.0
75,2.0169999701215082
76,-283.9958876212325
77,1.3651217220950715
78,2.1965041271274193
79,6.260696078521328
80,19.23387320217101
81,0.0
82,-108.54902338290802
83,0.0
84,0.0
85,0.0
86,-117.76687428747559
2,1,10, 1, 0, 2,30.00,45.00,Sunday
7,12.150000000000002
8,-12.361249056876431
9,0.0
10,0.0
11,19.21
12,0.0
13,0.0
14,0.0
15,0.0
16,0.0
17,0.0
18,0.0
19,0.0
20,0.0
21,0.0
22,0.0
23,0.0
24,-282.54358492000006
25,18.447464233125444
26,8.011799457319562
27,12.144891003043215
28,2.9812004032728145
29,-993.8887168250407
30,1.437354372167888
31,2.3180393225286062
32,-165.1773255260352
33,0.0
34,18.444688709860554
35,8.301829001098294
36,12.144891003043215
37,3.5821289095804434
38,-1268.2443588830683
39,1.439697075023385
40,2.321551535721182
41,-182.07747651483868
42,0.0
43,18.4446887098719
44,8.301829001154484
45,12.144891003043215
46,3.5821289096323996
47,-1268.2443588959222
48,1.4396970750184575
49,2.3215515357137932
50,-182.07747651159704
51,0.0
52,18.427651740652703
53,8.010746109158545
54,12.144891003043215
55,2.9813195607082923
56,-1176.1447041240565
57,1.4373457357171109
58,2.318026374313184
59,-195.57105219901425
60,0.0
61,20.130107576751172
62,20.20529889993205
63,18.683361758034145
64,-1.0593828958900406
65,12.130032019075774
66,3.0385022860748516
67,-10147.549670820456
68,3.865815222016064
69,0.0
70,0.0
71,0.0
72,15.085284259163927
73,11.043659591686946
74,12.150000000000002
75,1.99213981400747
76,-282.11720702233293
77,1.3649626728284456
78,2.1986836119170436
79,6.978508373374444
80,19.158742828715003
81,0.0
82,-102.7411533687339
83,0.0
84,0.0
85,0.0
86,-107.23964439322887
2,1,10, 1, 0, 2,45.00,60.00,Sunday
7,12.3
8,-12.423423039347256
9,0.0
10,0.0
11,19.21
12,0.0
13,0.0
14,0.0
15,0.0
16,0.0
17,0.0
18,0.0
19,0.0
20,0.0
21,0.0
22,0.0
23,0.0
24,-278.4972419116186
25,18.383336136840597
26,8.074934688359628
27,12.294891003043213
28,2.910432815620476
29,-988.3643517916396
30,1.4373889122192844
31,2.320665299546425
32,-168.8398935822207
33,0.0
34,18.380905747125652
35,8.366318423503065
36,12.294891003043213
37,3.496030843084606
38,-1262.2069596250765
39,1.439754302978775
40,2.3242132733597236
41,-186.3422193575742
42,0.0
43,18.380905747124633
44,8.366318423497757
45,12.294891003043213
46,3.4960308430795792
47,-1262.206959623856
48,1.4397543029792343
49,2.3242132733604066
50,-186.34221935788068
51,0.0
52,18.363769520009196
53,8.07388931515492
54,12.294891003043213
55,2.9105545488164664
56,-1169.6077361661935
57,1.437380327548869
58,2.320652422618003
59,-199.90613839439303
60,0.0
61,20.055449161663184
62,20.130107576751172
63,18.610202292516384
64,-1.2193254578758874
65,12.280032019075772
66,2.935548759352711
67,-10047.351962189727
68,3.8610444316376733
69,0.0
70,0.0
71,0.0
72,15.065763958484126
73,11.082186233890297
74,12.3
75,1.9687457483744482
76,-280.2901525197219
77,1.3647964573206273
78,2.2008542894891714
79,7.689290912164266
80,19.08765726896175
81,0.0
82,-100.17442665554049
83,0.0
84,0.0
85,0.0
86,-101.4910883016644
2,1,10, 1, 0, 3, 0.00,15.00,Sunday
7,12.425
8,-12.485641532491798
9,0.0
10,0.0
11,19.21
12,0.0
13,0.0
14,0.0
15,0.0
16,0.0
17,0.0
18,0.0
19,0.0
20,0.0
21,0.0
22,0.0
23,0.0
24,-274.638374610757
25,18.329024335726928
26,8.182729972770069
27,12.419891003043213
28,2.957374253214116
29,-999.002427099946
30,1.4374213201373025
31,2.32298148914919
32,-169.69745327096498
33,0.0
34,18.326906676697547
35,8.475911003328031
36,12.419891003043213
37,3.5480153021770446
38,-1275.450392210738
39,1.439798141844325
40,2.3265481541921282
41,-187.26096425242787
42,0.0
43,18.326906676697657
44,8.475911003328521
45,12.419891003043213
46,3.5480153021775056
47,-1275.4503922108456
48,1.439798141844281
49,2.3265481541920714
50,-187.2609642524
51,0.0
52,18.309632910669325
53,8.181699013174288
54,12.419891003043213
55,2.9574921527664277
56,-1182.2043641105947
57,1.437412799103731
58,2.322968702131263
59,-200.92061109648085
60,0.0
61,19.9820570023157
62,20.055449161663184
63,18.550809812023623
64,-1.0752670229270307
65,12.405032019075772
66,2.99701683665731
67,-10219.462515256468
68,3.8561882058800014
69,0.0
70,0.0
71,0.0
72,15.0466239977099
73,11.118563322156206
74,12.425
75,2.0180091542758394
76,-279.0672894193222
77,1.3646404084740398
78,2.2027517388875624
79,8.255874806452418
80,19.020048317251387
81,0.0
82,-94.31600943926004
83,0.0
84,0.0
85,0.0
86,-96.54976241980859
2,1,10, 1, 0, 3,15.00,30.00,Sunday
7,12.55
8,-12.54790461073378
9,0.0
10,0.0
11,19.21
12,0.0
13,0.0
14,0.0
15,0.0
16,0.0
17,0.0
18,0.0
19,0.0
20,0.0
21,0.0
22,0.0
23,0.0
24,-270.89637965604777
25,18.275067096208424
26,8.287358300234606
27,12.544891003043213
28,2.9996744257550825
29,-1009.0789903133007
30,1.437817667492705
31,2.3258459373451963
32,-170.72359319312594
33,0.0
34,18.27332824819611
35,8.582884653248776
36,12.544891003043213
37,3.5958058855121777
38,-1288.2245220648445
39,1.4402100631842265
40,2.329437499817807
41,-188.35048175233152
42,0.0
43,18.273328248196098
44,8.582884653248719
45,12.544891003043213
46,3.5958058855121333
47,-1288.2245220648347
48,1.4402100631842318
49,2.329437499817807
50,-188.35048175233422
51,0.0
52,18.255886136618578
53,8.286342423310751
54,12.544891003043213
55,2.9997884111822177
56,-1194.1365119631605
57,1.4378092607732418
58,2.3258333165013703
59,-202.1346182987272
60,0.0
61,19.909460807735545
62,19.9820570023157
63,18.491215999427432
64,-0.956035772498401
65,12.530032019075772
66,3.0516850338778747
67,-10386.968447604939
68,3.858028396678439
69,0.0
70,0.0
71,0.0
72,15.032456677727566
73,11.158131911610553
74,12.55
75,2.0667723364909065
76,-277.9772414596848
77,1.364467546138853
78,2.2046254776337575
79,8.803377633616325
80,18.955655340251642
81,0.0
82,-89.78491322386198
83,0.0
84,0.0
85,0.0
86,-91.97742314567586
2,1,10, 1, 0, 3,30.00,45.00,Sunday
7,12.675
8,-12.610212348692698
9,0.0
10,0.0
11,19.21
12,0.0
13,0.0
14,0.0
15,0.0
16,0.0
17,0.0
18,0.0
19,0.0
20,0.0
21,0.0
22,0.0
23,0.0
24,-267.1716826164223
25,18.223168140541546
26,8.392874143866567
27,12.669891003043213
28,3.0428049518597993
29,-1019.3706031993089
30,1.4381881843192876
31,2.3286739424354224
32,-171.7134254546029
33,0.0
34,18.221769859621382
35,8.690269443572333
36,12.669891003043213
37,3.6436444460545614
38,-1301.1100596300996
39,1.4406006047955948
40,2.332297108649643
41,-189.4201405048319
42,0.0
43,18.22176985962137
44,8.690269443572333
45,12.669891003043213
46,3.6436444460545667
47,-1301.1100596301003
48,1.4406006047955944
49,2.3322971086496405
50,-189.42014050483175
51,0.0
52,18.204193132979334
53,8.391873633455388
54,12.669891003043213
55,3.042915006963317
56,-1206.3233237739669
57,1.4381798975886602
58,2.328661496427675
59,-203.30563282539453
60,0.0
61,19.837787421949272
62,19.909460807735545
63,18.433696931897128
64,-0.8336098685907691
65,12.655032019075772
66,3.107483101523048
67,-10556.038631931762
68,3.85932205426559
69,0.0
70,0.0
71,0.0
72,15.019545916527363
73,11.198815304942855
74,12.675
75,2.1138154280426598
76,-276.931102691469
77,1.3643191044406602
78,2.2065373735473295
79,9.344819691823822
80,18.89375254688966
81,0.0
82,-86.98761066397111
83,0.0
84,0.0
85,0.0
86,-88.43924501912637
2,1,10, 1, 0, 3,45.00,60.00,Sunday
7,12.8
8,-12.672564821184324
9,0.0
10,0.0
11,19.21
12,0.0
13,0.0
14,0.0
15,0.0
16,0.0
17,0.0
18,0.0
19,0.0
20,0.0
21,0.0
22,0.0
23,0.0
24,-263.47344678833343
25,18.172764387619512
26,8.498822591989068
27,12.794891003043213
28,3.0862945311247962
29,-1029.7830225311852
30,1.4385659271963096
31,2.3315151260082345
32,-172.6887445051098
33,0.0
34,18.171691538906728
35,8.797781509584434
36,12.794891003043213
37,3.6912679930779015
38,-1314.0421604968328
39,1.4409945040861543
40,2.335164108834903
41,-190.48639276550597
42,0.0
43,18.171691538906735
44,8.797781509584434
45,12.794891003043213
46,3.6912679930779015
47,-1314.0421604968328
48,1.4409945040861543
49,2.335164108834903
50,-190.48639276550597
51,0.0
52,18.15399837919521
53,8.49783756229191
54,12.794891003043213
55,3.0864007315819775
56,-1218.653181464463
57,1.4385577628243744
58,2.331502858552838
59,-204.4594615265931
60,0.0
61,19.767061709183814
62,19.837787421949272
63,18.377657735588883
64,-0.7105120300214314
65,12.780032019075772
66,3.1637274553292465
67,-10726.058763636325
68,3.8606863778912226
69,0.0
70,0.0
71,0.0
72,15.008316186233515
73,11.240864049022377
74,12.8
75,2.1597902728979967
76,-275.93968191833187
77,1.3641790519502388
78,2.208463399409915
79,9.878618391899748
80,18.83363776963576
81,0.0
82,-84.94188313616522
83,0.0
84,0.0
85,0.0
86,-85.90242555746478
2,1,10, 1, 0, 4, 0.00,15.00,Sunday
7,12.875000000000002
8,-12.734962103221733
9,0.0
10,0.0
11,19.21
12,0.0
13,0.0
14,0.0
15,0.0
16,0.0
17,0.0
18,0.0
19,0.0
20,0.0
21,0.0
22,0.0
23,0.0
24,-260.6612727003266
25,18.119184801073445
26,8.563053463442786
27,12.869891003043215
28,3.124965472385671
29,-1038.3416388155115
30,1.4389471900576414
31,2.33374405362063
32,-173.28713458527199
33,0.0
34,18.118377941697915
35,8.863499306003247
36,12.869891003043215
37,3.7347197597784914
38,-1324.734131116527
39,1.4413894437276227
40,2.337414713114111
41,-191.11276071755006
42,0.0
43,18.11837794169789
44,8.863499306003249
45,12.869891003043215
46,3.7347197597784914
47,-1324.7341311165271
48,1.4413894437276227
49,2.337414713114111
50,-191.11276071754997
51,0.0
52,18.100578627635162
53,8.562087541417894
54,12.869891003043215
55,3.1250683794468186
56,-1228.7898760194087
57,1.4389391490514802
58,2.3337319678155275
59,-205.1669308419193
60,0.0
61,19.697016178125587
62,19.767061709183814
63,18.32032615735107
64,-0.6107771735376833
65,12.855032019075773
66,3.2194040214329513
67,-10875.322767398018
68,3.86206580318555
69,0.0
70,0.0
71,0.0
72,14.984609295668179
73,11.25349807090754
74,12.875000000000002
75,2.193763064444445
76,-275.0932583368202
77,1.3640493241735605
78,2.209824197635929
79,10.278509274243588
80,18.774189884707187
81,0.0
82,-85.00719787407051
83,0.0
84,0.0
85,0.0
86,-84.96696401358712
2,1,10, 1, 0, 4,15.00,30.00,Sunday
7,12.95
8,-12.797404270015761
9,0.0
10,0.0
11,19.21
12,0.0
13,0.0
14,0.0
15,0.0
16,0.0
17,0.0
18,0.0
19,0.0
20,0.0
21,0.0
22,0.0
23,0.0
24,-257.86262027101543
25,18.067027367035926
26,8.63105108528978
27,12.944891003043212
28,3.168528922914982
29,-1047.6330050671609
30,1.4389878027038745
31,2.3354622666950156
32,-173.6966673927466
33,0.0
34,18.066413928633732
35,8.931798659683551
36,12.944891003043212
37,3.781420509695085
38,-1335.9053148205207
39,1.4414426152603825
40,2.3391529629894734
41,-191.57475599473995
42,0.0
43,18.066413928633743
44,8.931798659683563
45,12.944891003043212
46,3.781420509695085
47,-1335.9053148205246
48,1.4414426152603825
49,2.3391529629894734
50,-191.57475599473935
51,0.0
52,18.04858202242114
53,8.630097472731617
54,12.944891003043212
55,3.1686278320682577
56,-1239.7919221495656
57,1.4389799163824004
58,2.3354504096510498
59,-205.65116516679262
60,0.0
61,19.627789099665243
62,19.697016178125587
63,18.264158205558847
64,-0.5087531954020328
65,12.930032019075771
66,3.2760857273182484
67,-11025.314033496728
68,3.862929848103989
69,0.0
70,0.0
71,0.0
72,14.962029579675118
73,11.270173904349122
74,12.95
75,2.2340627240784103
76,-274.4187279620207
77,1.3636922581133697
78,2.2108442573742284
79,10.653360332127242
80,18.714905741966465
81,0.0
82,-84.85583935969909
83,0.0
84,0.0
85,0.0
86,-84.7503538070941
2,1,10, 1, 0, 4,30.00,45.00,Sunday
7,13.024999999999999
8,-12.859891396975797
9,0.0
10,0.0
11,19.21
12,0.0
13,0.0
14,0.0
15,0.0
16,0.0
17,0.0
18,0.0
19,0.0
20,0.0
21,0.0
22,0.0
23,0.0
24,-255.0857122423436
25,18.01525915618987
26,8.699036732432205
27,13.019891003043211
28,3.2121514958999025
29,-1056.9471157441283
30,1.4390589835286887
31,2.337227585176545
32,-174.11060667540792
33,0.0
34,18.01483380194336
35,8.999919525038129
36,13.019891003043211
37,3.827768690126393
38,-1347.0443670508598
39,1.4415167116497096
40,2.340923825448573
41,-192.04842910266973
42,0.0
43,18.014833801943357
44,8.999919525038129
45,13.019891003043211
46,3.827768690126388
47,-1347.044367050859
48,1.4415167116497098
49,2.340923825448576
50,-192.04842910266996
51,0.0
52,17.996974431264416
53,8.698095439658568
54,13.019891003043211
55,3.2122472223274343
56,-1250.8208437309077
57,1.4390511962871102
58,2.337215873419467
59,-206.14060773696335
60,0.0
61,19.559323579396093
62,19.627789099665243
63,18.208431514421292
64,-0.4065183489356718
65,13.00503201907577
66,3.3331982849033763
67,-11175.746706516182
68,3.8638443070718265
69,0.0
70,0.0
71,0.0
72,14.939911570916138
73,11.287579946710196
74,13.024999999999999
75,2.273184024785833
76,-273.7740065868306
77,1.3633661853809251
78,2.21191159051089
79,11.023979385874615
80,18.65588163188075
81,0.0
82,-84.14707890101018
83,0.0
84,0.0
85,0.0
86,-84.39589772445942
2,1,10, 1, 0, 4,45.00,60.00,Sunday
7,13.1
8,-12.922423559710637
9,0.0
10,0.0
11,19.21
12,0.0
13,0.0
14,0.0
15,0.0
16,0.0
17,0.0
18,0.0
19,0.0
20,0.0
21,0.0
22,0.0
23,0.0
24,-252.30835661770274
25,17.96404616916273
26,8.767368239858644
27,13.094891003043212
28,3.256210119563015
29,-1066.3545136064513
30,1.4391298857186297
31,2.3389936463718106
32,-174.51108123020757
33,0.0
34,17.96379047034557
35,9.06808677377391
36,13.094891003043212
37,3.873981887987895
38,-1358.1995045477
39,1.4415891679907655
40,2.3426933856110823
41,-192.52027483330153
42,0.0
43,17.96379047034555
44,9.06808677377391
45,13.094891003043212
46,3.873981887987895
47,-1358.1995045477
48,1.4415891679907655
49,2.3426933856110823
50,-192.52027483330153
51,0.0
52,17.94592153688286
53,8.766439208740753
54,13.094891003043212
55,3.2563027316117434
56,-1261.9601774791488
57,1.439122197678875
58,2.3389820801777907
59,-206.6141140014038
60,0.0
61,19.491606099929644
62,19.559323579396093
63,18.153271508771976
64,-0.30394311879042235
65,13.080032019075771
66,3.390761501698154
67,-11326.608689061106
68,3.86476333105252
69,0.0
70,0.0
71,0.0
72,14.918309392042715
73,11.305581231933957
74,13.1
75,2.3118901995913568
76,-273.15331520563035
77,1.3630455343018002
78,2.2129877895615655
79,11.391212821225771
80,18.597350073827787
81,0.0
82,-83.2288644293112
83,0.0
84,0.0
85,0.0
86,-83.70861805273366
2,1,10, 1, 0, 5, 0.00,15.00,Sunday
7,13.174999999999999
8,-12.672564821184324
9,0.0
10,0.0
11,19.21
12,0.0
13,0.0
14,0.0
15,0.0
16,0.0
17,0.0
18,0.0
19,0.0
20,0.0
21,0.0
22,0.0
23,0.0
24,-248.5130213812257
25,17.91664645498726
26,8.861853160225882
27,13.169891003043212
28,3.256866060626865
29,-1059.242064552106